Protein in water
77526
    1DC     O5'    1   2.903   4.324   3.251 -0.1739  0.3353  0.5367
    1DC     H5T    2   2.949   4.296   3.330 -0.2638  0.6336  0.6984
    1DC     C5'    3   2.791   4.241   3.227 -0.3110  0.5716  0.3534
    1DC    H5'1    4   2.739   4.284   3.141 -2.4145 -2.5413 -0.1075
    1DC    H5'2    5   2.726   4.255   3.313  0.8461 -1.1212  1.5582
    1DC     C4'    6   2.827   4.096   3.200  0.1527  0.7304  0.1065
    1DC     H4'    7   2.730   4.050   3.182 -0.4120  2.2779 -1.0108
    1DC     O4'    8   2.907   4.083   3.085  0.0401 -0.1917  0.1249
    1DC     C1'    9   2.969   3.956   3.085  0.2499 -0.0916 -0.1402
    1DC     H1'   10   2.932   3.890   3.006 -0.8322 -0.2996  0.5156
    1DC      N1   11   3.113   3.972   3.059  0.1323  0.4779 -0.4443
    1DC      C6   12   3.174   4.090   3.092  0.2671  0.3731 -0.3160
    1DC      H6   13   3.115   4.174   3.127 -0.7258  0.2259 -1.5641
    1DC      C5   14   3.307   4.111   3.093  0.3389 -0.0730 -0.1638
    1DC      H5   15   3.346   4.206   3.127  2.6532 -1.0995  0.2257
    1DC      C4   16   3.387   3.999   3.054 -0.2104 -0.4014 -0.3499
    1DC      N4   17   3.516   4.019   3.024 -0.3236  0.2835 -0.3876
    1DC     H41   18   3.540   4.117   3.030  3.4976 -0.2827 -3.1626
    1DC     H42   19   3.583   3.949   3.000 -2.0420 -2.4239  1.9743
    1DC      N3   20   3.333   3.879   3.027 -0.1143 -0.4214 -0.4571
    1DC      C2   21   3.198   3.866   3.033 -0.1428  0.0958  0.1994
    1DC      O2   22   3.149   3.756   3.006  0.1637 -0.0080  0.0634
    1DC     C3'   23   2.910   4.023   3.306 -0.2772 -0.2435 -0.2187
    1DC     H3'   24   3.005   4.069   3.331  0.7335 -2.8216  0.9960
    1DC     C2'   25   2.945   3.898   3.224 -0.9462 -0.3081 -0.4201
    1DC    H2'1   26   3.035   3.861   3.273 -2.1197  0.1417  2.2624
    1DC    H2'2   27   2.863   3.827   3.223 -0.8201 -0.6408 -4.7341
    1DC     O3'   28   2.822   3.996   3.413 -0.2634  0.1560 -0.1058
    2DG       P   29   2.884   3.947   3.553  0.0057  0.1015 -0.2435
    2DG     O1P   30   2.774   3.905   3.643  0.5647 -0.0952  0.3630
    2DG     O2P   31   2.985   4.044   3.602  0.3464 -0.0140 -0.7107
    2DG     O5'   32   2.971   3.811   3.545 -0.2457 -0.0729 -0.0396
    2DG     C5'   33   2.910   3.686   3.522 -0.1572 -0.0189 -0.5945
    2DG    H5'1   34   2.832   3.693   3.446 -0.9397  0.6162  0.2414
    2DG    H5'2   35   2.865   3.671   3.620  0.1075  0.2814 -0.4241
    2DG     C4'   36   3.009   3.572   3.504  0.1141  0.1074  0.0609
    2DG     H4'   37   2.949   3.482   3.488  1.1544 -0.8276  1.2046
    2DG     O4'   38   3.076   3.602   3.383  0.0700 -0.3210 -0.0704
    2DG     C1'   39   3.203   3.542   3.399 -0.0046 -0.4857 -0.0851
    2DG     H1'   40   3.222   3.453   3.340  0.7237  0.4896 -1.3589
    2DG      N9   41   3.299   3.648   3.365  0.0165 -0.4119  0.1944
    2DG      C8   42   3.299   3.783   3.391 -0.3343 -0.3411 -0.1557
    2DG      H8   43   3.218   3.842   3.429  0.8839  1.3457 -0.0437
    2DG      N7   44   3.414   3.844   3.375 -0.5893  0.1579 -0.1007
    2DG      C5   45   3.495   3.743   3.323 -0.5919  0.0742  0.0522
    2DG      C6   46   3.624   3.744   3.264 -0.2671 -0.0272  0.7594
    2DG      O6   47   3.701   3.840   3.256 -0.6307  0.1327 -1.1755
    2DG      N1   48   3.684   3.621   3.242 -0.1935  0.2432 -0.6231
    2DG      H1   49   3.779   3.626   3.208  0.3747  1.1869  0.9765
    2DG      C2   50   3.609   3.505   3.249  0.3217 -0.0807 -0.4574
    2DG      N2   51   3.670   3.389   3.218  0.1402 -0.3854  0.2904
    2DG     H21   52   3.770   3.380   3.210  0.0025 -1.0455 -0.9052
    2DG     H22   53   3.619   3.302   3.212  2.1937 -1.6900  0.8830
    2DG      N3   54   3.479   3.506   3.281  0.5217 -0.1440  0.3888
    2DG      C4   55   3.425   3.626   3.314  0.0220 -0.3045  0.1592
    2DG     C3'   56   3.108   3.553   3.619 -0.0914  0.1262  0.2429
    2DG     H3'   57   3.131   3.653   3.656  0.6033  0.2157 -0.3892
    2DG     C2'   58   3.230   3.500   3.543 -0.1875  0.0814  0.1197
    2DG    H2'1   59   3.328   3.523   3.584  0.5097 -0.9927 -0.9054
    2DG    H2'2   60   3.227   3.391   3.547 -1.0370  0.1001  0.3141
    2DG     O3'   61   3.069   3.457   3.713 -0.0286  0.1322  0.2753
    3DA       P   62   3.141   3.459   3.857 -0.0136  0.0116  0.2693
    3DA     O1P   63   3.061   3.366   3.941 -0.2141 -0.2632 -0.2208
    3DA     O2P   64   3.158   3.600   3.898 -0.2715  0.2112 -0.3028
    3DA     O5'   65   3.288   3.402   3.825 -0.0514  0.0213  0.0781
    3DA     C5'   66   3.296   3.263   3.802  0.5950  0.0472  0.1355
    3DA    H5'1   67   3.215   3.224   3.740  0.0634  0.2150  0.7183
    3DA    H5'2   68   3.291   3.202   3.892  1.6923 -0.4814 -0.1356
    3DA     C4'   69   3.431   3.223   3.742  0.6382  0.2372  0.1039
    3DA     H4'   70   3.398   3.119   3.731  0.5403  0.2473  0.3038
    3DA     O4'   71   3.464   3.262   3.610  0.1072 -0.0097 -0.1072
    3DA     C1'   72   3.605   3.266   3.610  0.1021  0.1924  0.0417
    3DA     H1'   73   3.648   3.225   3.519 -2.5612  0.6091 -1.5064
    3DA      N9   74   3.647   3.407   3.608  0.4173  0.1017  0.1528
    3DA      C8   75   3.574   3.517   3.648  0.0708 -0.2252  0.4235
    3DA      H8   76   3.488   3.497   3.710  0.3810 -1.9859  0.3617
    3DA      N7   77   3.622   3.633   3.614 -0.0203 -0.1003  0.7186
    3DA      C5   78   3.744   3.595   3.558 -0.3402  0.1267 -0.1438
    3DA      C6   79   3.855   3.667   3.511 -0.2710 -0.2094 -0.4934
    3DA      N6   80   3.874   3.799   3.511  0.4173 -0.2993  0.3212
    3DA     H61   81   3.807   3.850   3.567 -0.7162 -2.2474  0.8433
    3DA     H62   82   3.962   3.840   3.486 -0.2402  0.0316 -1.5903
    3DA      N1   83   3.962   3.601   3.463  0.1591  0.1209  0.0032
    3DA      C2   84   3.957   3.469   3.462 -0.1207  0.1339 -0.5558
    3DA      H2   85   4.050   3.432   3.422  0.0092  1.2133 -1.2772
    3DA      N3   86   3.865   3.385   3.507  0.5307  0.0560  0.6764
    3DA      C4   87   3.763   3.460   3.557  0.2657  0.2089 -0.0830
    3DA     C3'   88   3.554   3.228   3.831  0.4466  0.1516  0.3736
    3DA     H3'   89   3.567   3.326   3.878 -1.4031  1.1958 -1.1612
    3DA     C2'   90   3.663   3.191   3.730 -0.2349 -0.4082 -0.1649
    3DA    H2'1   91   3.761   3.231   3.757 -0.2784 -0.0278 -0.5690
    3DA    H2'2   92   3.662   3.083   3.717 -2.1110 -0.7377  2.0377
    3DA     O3'   93   3.543   3.123   3.925 -0.1330  0.2878  0.4597
    4DC       P   94   3.596   3.141   4.076  0.2419 -0.1197  0.3796
    4DC     O1P   95   3.554   3.028   4.161 -0.4345  0.2216  0.5117
    4DC     O2P   96   3.565   3.281   4.116  0.0371 -0.0966  0.1457
    4DC     O5'   97   3.756   3.153   4.060  0.2042 -0.0472  0.0484
    4DC     C5'   98   3.838   3.039   4.043  0.1944  0.0089 -0.3997
    4DC    H5'1   99   3.794   2.967   3.974  1.5037 -0.0133 -1.2459
    4DC    H5'2  100   3.839   2.973   4.130 -1.0326  0.8438  0.2977
    4DC     C4'  101   3.973   3.065   3.977  0.5233 -0.1168  0.2146
    4DC     H4'  102   4.017   2.967   3.963  1.2980 -0.1784  2.6585
    4DC     O4'  103   3.964   3.142   3.859 -0.1350  0.1174  0.4096
    4DC     C1'  104   4.068   3.237   3.848 -0.3442  0.3573  0.4926
    4DC     H1'  105   4.110   3.234   3.748  1.2495 -0.9700  1.1558
    4DC      N1  106   4.031   3.380   3.860 -0.1188  0.4375  0.2439
    4DC      C6  107   3.906   3.412   3.902 -0.4477 -0.4791 -0.0127
    4DC      H6  108   3.833   3.339   3.936  0.0750 -0.7417  0.5576
    4DC      C5  109   3.860   3.539   3.899 -0.0783 -0.3509 -0.2608
    4DC      H5  110   3.759   3.560   3.930  1.2575  2.5065  2.7760
    4DC      C4  111   3.949   3.637   3.844 -0.1375  0.1124  0.4537
    4DC      N4  112   3.919   3.768   3.833 -0.6168 -0.0099  0.2574
    4DC     H41  113   3.835   3.810   3.869  0.3029  2.1048  0.0839
    4DC     H42  114   3.997   3.823   3.801  0.0205 -1.4488 -0.7908
    4DC      N3  115   4.075   3.606   3.814 -0.2568 -0.1727  0.2460
    4DC      C2  116   4.120   3.478   3.820  0.4137  0.0702  0.5088
    4DC      O2  117   4.238   3.452   3.794  0.2268  0.0547 -0.3697
    4DC     C3'  118   4.061   3.152   4.067  0.5146 -0.0005  0.1119
    4DC     H3'  119   4.003   3.239   4.098  0.1036  1.0999 -3.3149
    4DC     C2'  120   4.161   3.197   3.962  0.2710 -0.1241 -0.1747
    4DC    H2'1  121   4.232   3.275   3.991  0.3297  0.3950 -1.6171
    4DC    H2'2  122   4.215   3.105   3.938 -0.5474 -0.6154 -0.1616
    4DC     O3'  123   4.121   3.075   4.169 -0.4445 -0.6481  0.2100
    5DT       P  124   4.175   3.138   4.307 -0.1442 -0.2274 -0.0977
    5DT     O1P  125   4.229   3.027   4.388 -1.1052 -0.5887  0.0571
    5DT     O2P  126   4.061   3.214   4.365  0.1799  0.7396 -0.6971
    5DT     O5'  127   4.295   3.236   4.262  0.1834 -0.4336  0.3302
    5DT     C5'  128   4.407   3.175   4.202  0.2519 -0.0054  0.0254
    5DT    H5'1  129   4.370   3.110   4.122  0.2991 -0.1551  0.1256
    5DT    H5'2  130   4.462   3.114   4.273  0.1157  0.4673  0.5415
    5DT     C4'  131   4.504   3.282   4.152  0.5750 -0.3259 -0.0432
    5DT     H4'  132   4.596   3.234   4.121  1.1521  0.6925  0.0260
    5DT     O4'  133   4.460   3.355   4.040  0.4889 -0.2141  0.0625
    5DT     C1'  134   4.506   3.488   4.054  0.2525 -0.0863 -0.3500
    5DT     H1'  135   4.567   3.513   3.967 -0.0317 -0.3300 -0.6245
    5DT      N1  136   4.391   3.577   4.077  0.5119  0.2062 -0.1827
    5DT      C6  137   4.269   3.535   4.122  0.3256  0.3042 -0.5870
    5DT      H6  138   4.262   3.433   4.158  0.8190  0.5663  0.2925
    5DT      C5  139   4.163   3.618   4.134  0.4841  0.3847  0.3186
    5DT      C7  140   4.037   3.571   4.202  0.0190 -0.0352 -0.8149
    5DT     H71  141   4.048   3.473   4.249  2.2037  0.4232 -0.2558
    5DT     H72  142   4.017   3.635   4.287  1.4232 -0.3856 -0.1857
    5DT     H73  143   3.951   3.581   4.136 -1.8491  1.9026  1.6997
    5DT      C4  144   4.169   3.753   4.084 -0.1900  0.0432 -0.7061
    5DT      O4  145   4.079   3.835   4.102  0.0273  0.0669  0.3596
    5DT      N3  146   4.293   3.787   4.032  0.2582  0.0229  0.3270
    5DT      H3  147   4.302   3.883   4.003  1.5578  0.0036  0.5852
    5DT      C2  148   4.407   3.708   4.037  0.5107  0.3937  0.4212
    5DT      O2  149   4.514   3.757   4.001  0.5625  0.0623  0.1210
    5DT     C3'  150   4.541   3.381   4.263  0.1708 -0.0820 -0.1243
    5DT     H3'  151   4.446   3.411   4.308 -0.2822  0.4540 -1.3836
    5DT     C2'  152   4.594   3.496   4.178 -0.0427  0.0037 -0.1436
    5DT    H2'1  153   4.576   3.588   4.235  0.0943 -0.8213  1.2755
    5DT    H2'2  154   4.700   3.478   4.161  0.6090  0.5109  2.8247
    5DT     O3'  155   4.643   3.336   4.349  0.1766  0.5021  0.1824
    6DC       P  156   4.640   3.376   4.505  0.2154  0.3321  0.2269
    6DC     O1P  157   4.747   3.302   4.575  0.3923  0.3260 -0.0483
    6DC     O2P  158   4.501   3.363   4.556  0.0615  0.2183 -0.2136
    6DC     O5'  159   4.673   3.533   4.516  0.0543  0.4109 -0.3460
    6DC     C5'  160   4.805   3.574   4.489  0.2208 -0.0961 -0.3213
    6DC    H5'1  161   4.842   3.521   4.402  0.7668 -1.4886  0.7225
    6DC    H5'2  162   4.858   3.543   4.579  2.4208  1.4685 -1.0035
    6DC     C4'  163   4.806   3.727   4.479  0.3965 -0.0498  0.3771
    6DC     H4'  164   4.911   3.752   4.466  0.2130  2.1745  2.4538
    6DC     O4'  165   4.736   3.775   4.367  0.6032  0.5620  0.5054
    6DC     C1'  166   4.701   3.910   4.387 -0.3769  0.3653  0.2056
    6DC     H1'  167   4.753   3.977   4.319 -0.1836  1.0635  1.0157
    6DC      N1  168   4.556   3.928   4.368 -0.4370  0.2935  0.5874
    6DC      C6  169   4.463   3.832   4.394 -0.6087  0.3363  0.1415
    6DC      H6  170   4.501   3.736   4.425  0.2711  0.3132 -0.9608
    6DC      C5  171   4.329   3.849   4.387 -0.6857 -0.2991  0.0609
    6DC      H5  172   4.256   3.773   4.410 -1.7372 -0.1052 -2.2695
    6DC      C4  173   4.299   3.982   4.343  0.3834 -0.0639  0.0176
    6DC      N4  174   4.168   4.008   4.349  0.3901 -0.0152 -0.0611
    6DC     H41  175   4.108   3.933   4.379  2.2045 -0.3802  3.0468
    6DC     H42  176   4.140   4.103   4.331  0.3910  0.4445  2.0541
    6DC      N3  177   4.383   4.084   4.322  0.0903  0.1247 -0.2333
    6DC      C2  178   4.515   4.054   4.329  0.1277  0.3960  0.3140
    6DC      O2  179   4.593   4.145   4.301  0.2643  0.1840 -0.0013
    6DC     C3'  180   4.757   3.808   4.599  0.3526  0.5432 -0.0402
    6DC     H3'  181   4.657   3.771   4.622  0.3288  0.5818 -0.0793
    6DC     C2'  182   4.736   3.944   4.532  0.3122  0.5571 -0.0000
    6DC    H2'1  183   4.657   3.998   4.583 -1.0466  0.0764 -1.5187
    6DC    H2'2  184   4.823   4.009   4.536  0.2137  0.7077 -0.2836
    6DC     O3'  185   4.856   3.816   4.699  0.3749  0.0241 -0.0176
    7DT       P  186   4.828   3.884   4.843  0.4064 -0.3027  0.1433
    7DT     O1P  187   4.952   3.867   4.922  0.5581  0.3078  0.0445
    7DT     O2P  188   4.702   3.822   4.889  0.1982  0.4907  0.6531
    7DT     O5'  189   4.803   4.041   4.823  0.3099 -0.2545  0.6524
    7DT     C5'  190   4.907   4.127   4.782  0.0880  0.1822  0.9941
    7DT    H5'1  191   4.946   4.083   4.690 -2.0057  1.7122 -0.7450
    7DT    H5'2  192   4.992   4.138   4.849  0.7039 -0.4293  0.3295
    7DT     C4'  193   4.856   4.266   4.742 -0.1520 -0.1636  0.0781
    7DT     H4'  194   4.937   4.327   4.702 -1.7086  2.2403  0.3642
    7DT     O4'  195   4.755   4.257   4.645 -0.0136 -0.2636 -0.0576
    7DT     C1'  196   4.653   4.353   4.660  0.1703 -0.1017  0.1403
    7DT     H1'  197   4.667   4.432   4.586 -1.0850  0.7182  0.7459
    7DT      N1  198   4.519   4.296   4.681  0.0672  0.0096 -0.2013
    7DT      C6  199   4.502   4.165   4.718 -0.1943 -0.0626 -0.5753
    7DT      H6  200   4.588   4.109   4.751  0.1726  0.1003 -1.2400
    7DT      C5  201   4.386   4.100   4.697 -0.0250 -0.3345 -0.6726
    7DT      C7  202   4.390   3.951   4.720  0.7731 -0.2746 -0.4091
    7DT     H71  203   4.306   3.920   4.659  0.7603 -0.9000 -0.0849
    7DT     H72  204   4.479   3.896   4.688  0.0322 -0.6656 -1.8560
    7DT     H73  205   4.375   3.930   4.826 -2.4613 -0.6574 -0.8439
    7DT      C4  206   4.272   4.174   4.648 -0.3379 -0.3130  0.0734
    7DT      O4  207   4.157   4.134   4.627 -0.4948  0.0988  0.1332
    7DT      N3  208   4.293   4.307   4.618  0.2090 -0.4417 -0.1140
    7DT      H3  209   4.216   4.365   4.588 -0.8533 -1.2492  0.9758
    7DT      C2  210   4.413   4.374   4.640  0.2178 -0.1752 -0.9481
    7DT      O2  211   4.411   4.492   4.605 -0.2135  0.2012  0.3016
    7DT     C3'  212   4.803   4.340   4.864 -0.4191 -0.0047 -0.1325
    7DT     H3'  213   4.757   4.271   4.935 -0.9642  1.8060  1.3417
    7DT     C2'  214   4.701   4.423   4.788 -0.5043  0.2182  0.2202
    7DT    H2'1  215   4.616   4.451   4.850 -1.2250  1.4350 -1.2299
    7DT    H2'2  216   4.741   4.521   4.762 -1.2842  0.6239  0.5073
    7DT     O3'  217   4.898   4.421   4.931 -0.4174  0.1141 -0.2792
    8DA       P  218   4.863   4.462   5.082  0.0681 -0.3498 -0.0399
    8DA     O1P  219   4.969   4.551   5.134  0.2615 -0.1832 -0.7137
    8DA     O2P  220   4.836   4.338   5.159  0.1560 -0.2380  0.1716
    8DA     O5'  221   4.730   4.552   5.081  0.1205 -0.2794 -0.4878
    8DA     C5'  222   4.736   4.690   5.050 -0.2515 -0.0549  0.4253
    8DA    H5'1  223   4.782   4.706   4.953 -2.4225  0.3908 -0.5850
    8DA    H5'2  224   4.787   4.756   5.120  0.4147  1.8020 -1.6924
    8DA     C4'  225   4.597   4.748   5.025  0.0122  0.4710  0.1667
    8DA     H4'  226   4.608   4.847   4.981  1.3187  0.8900  1.3595
    8DA     O4'  227   4.519   4.671   4.936 -0.2706  0.7934  0.1335
    8DA     C1'  228   4.382   4.686   4.965 -0.3249  0.0133  0.2986
    8DA     H1'  229   4.337   4.763   4.903 -1.7837 -0.2253  1.0233
    8DA      N9  230   4.315   4.556   4.948  0.1158 -0.1665 -0.0759
    8DA      C8  231   4.358   4.427   4.966 -0.0307 -0.2190 -0.1036
    8DA      H8  232   4.455   4.404   5.008 -0.6892 -2.1342  0.4924
    8DA      N7  233   4.264   4.338   4.946  0.2845 -0.5347 -0.1967
    8DA      C5  234   4.154   4.413   4.907  0.4253 -0.0003  0.4116
    8DA      C6  235   4.023   4.384   4.863  0.5231 -0.1480  0.2172
    8DA      N6  236   3.967   4.263   4.859 -0.5821  0.3858 -0.7844
    8DA     H61  237   4.010   4.178   4.893 -0.0647  0.8823 -0.1706
    8DA     H62  238   3.873   4.260   4.821 -0.5862 -0.1234 -0.7431
    8DA      N1  239   3.932   4.478   4.838  0.1795 -0.6175 -0.2904
    8DA      C2  240   3.972   4.603   4.854  0.4459 -0.7782  0.2992
    8DA      H2  241   3.900   4.682   4.841 -0.0403 -1.2945 -0.1873
    8DA      N3  242   4.093   4.645   4.887  0.2641  0.2083 -0.2552
    8DA      C4  243   4.182   4.547   4.915  0.1267  0.1027 -0.1930
    8DA     C3'  244   4.516   4.758   5.154 -0.2359 -0.0748  0.0554
    8DA     H3'  245   4.553   4.672   5.210 -0.7314 -0.7280 -0.5955
    8DA     C2'  246   4.371   4.741   5.107 -0.3299 -0.3668  0.4464
    8DA    H2'1  247   4.329   4.666   5.174 -0.4453  0.3659  1.2187
    8DA    H2'2  248   4.312   4.832   5.095 -0.0154 -0.5162 -3.1943
    8DA     O3'  249   4.537   4.883   5.215 -0.2919  0.2491 -0.5787
    9DC       P  250   4.475   4.907   5.362  0.3442  0.1249 -0.2854
    9DC     O1P  251   4.526   5.039   5.406  0.4219 -0.2710  0.8326
    9DC     O2P  252   4.506   4.788   5.444 -0.2574  0.1716  0.0140
    9DC     O5'  253   4.314   4.906   5.350  0.3022 -0.0312  0.2527
    9DC     C5'  254   4.247   5.028   5.332  0.2118 -0.0239  0.6510
    9DC    H5'1  255   4.281   5.084   5.245  0.6754  0.7398  1.3114
    9DC    H5'2  256   4.269   5.100   5.411  0.5906  1.4737 -0.7579
    9DC     C4'  257   4.095   5.020   5.322  0.2515 -0.2871  0.2265
    9DC     H4'  258   4.057   5.121   5.305  3.1662  0.7990 -0.4431
    9DC     O4'  259   4.052   4.953   5.206 -0.3570 -0.0580  0.3150
    9DC     C1'  260   3.927   4.889   5.226 -0.2070 -0.4272  0.0848
    9DC     H1'  261   3.861   4.936   5.153 -1.3334 -1.5065  0.3849
    9DC      N1  262   3.933   4.742   5.219 -0.3481 -0.4096 -0.3881
    9DC      C6  263   4.053   4.678   5.224  0.0510  0.3380 -0.2120
    9DC      H6  264   4.136   4.738   5.258 -1.5293  1.1078  2.5826
    9DC      C5  265   4.053   4.543   5.217  0.1102  0.2801  0.7292
    9DC      H5  266   4.144   4.486   5.232 -0.7783 -1.6746 -0.7798
    9DC      C4  267   3.929   4.475   5.198  0.3612 -0.0259  0.1319
    9DC      N4  268   3.918   4.341   5.194 -0.1420  0.0125  0.1336
    9DC     H41  269   4.000   4.283   5.201  0.4403  0.8536  0.4094
    9DC     H42  270   3.828   4.296   5.181  0.4519 -2.4829  3.2852
    9DC      N3  271   3.811   4.536   5.186  0.2665 -0.3018 -0.3796
    9DC      C2  272   3.815   4.671   5.202 -0.4750 -0.3302  0.1431
    9DC      O2  273   3.717   4.743   5.184 -0.0642  0.0077 -0.8069
    9DC     C3'  274   4.016   4.951   5.433 -0.0004 -0.0630  0.1881
    9DC     H3'  275   4.077   4.865   5.460  0.1585 -0.0925 -0.2598
    9DC     C2'  276   3.882   4.921   5.368  0.0850 -0.4182  0.1776
    9DC    H2'1  277   3.830   4.835   5.411 -2.6462  0.4128 -1.2348
    9DC    H2'2  278   3.817   5.009   5.369  1.8972  1.0101 -1.3985
    9DC     O3'  279   3.989   5.046   5.535  0.7115  0.0864  0.2475
   10DG       P  280   3.953   4.997   5.684  0.0544  0.2221  0.1388
   10DG     O1P  281   3.941   5.110   5.778 -0.4270 -0.0953  0.4604
   10DG     O2P  282   4.039   4.880   5.714 -0.1170  0.1571  0.3747
   10DG     O5'  283   3.805   4.935   5.677  0.2518 -0.2359  0.0162
   10DG     C5'  284   3.691   5.015   5.658  0.4018 -0.0032  0.0994
   10DG    H5'1  285   3.701   5.087   5.576  0.7883  1.1277  1.1207
   10DG    H5'2  286   3.676   5.067   5.752  2.2579 -0.4609  0.6830
   10DG     C4'  287   3.562   4.938   5.632  0.5072 -0.2098  0.1929
   10DG     H4'  288   3.485   5.013   5.620  0.5834 -0.2309 -0.4670
   10DG     O4'  289   3.566   4.862   5.512 -0.1859  0.0429  0.0049
   10DG     C1'  290   3.491   4.745   5.534 -0.1407  0.0194  0.0329
   10DG     H1'  291   3.406   4.733   5.467  0.1617  0.6849 -0.4818
   10DG      N9  292   3.573   4.623   5.531  0.4708  0.4195  0.1332
   10DG      C8  293   3.705   4.606   5.561  0.3531 -0.3873  0.2330
   10DG      H8  294   3.769   4.691   5.583  1.1195 -1.2944  1.6618
   10DG      N7  295   3.751   4.486   5.538 -0.0802 -0.4284 -0.4449
   10DG      C5  296   3.640   4.416   5.492 -0.3461 -0.4815  0.2763
   10DG      C6  297   3.634   4.284   5.442 -0.2288 -0.3780 -0.0104
   10DG      O6  298   3.715   4.192   5.427 -0.1820 -0.4087  0.4404
   10DG      N1  299   3.505   4.255   5.400  0.0025 -0.1612 -0.8953
   10DG      H1  300   3.485   4.158   5.381 -1.4669 -0.1860  0.6114
   10DG      C2  301   3.398   4.342   5.411  0.4701  0.2834  0.2957
   10DG      N2  302   3.274   4.297   5.386  0.5463 -0.0973  0.5741
   10DG     H21  303   3.261   4.202   5.357 -2.5329  0.5465 -0.5698
   10DG     H22  304   3.201   4.367   5.374  0.5106 -0.4771 -1.8690
   10DG      N3  305   3.405   4.470   5.448  0.3784  0.3129  0.2138
   10DG      C4  306   3.531   4.499   5.486  0.4350  0.5288 -0.1371
   10DG     C3'  307   3.519   4.848   5.747 -0.2666 -0.1411 -0.0402
   10DG     H3'  308   3.609   4.795   5.778 -0.7172 -0.8396  0.1219
   10DG     C2'  309   3.424   4.754   5.671 -0.2577 -0.1732 -0.0109
   10DG    H2'1  310   3.410   4.661   5.726 -2.0716 -0.3545 -0.7510
   10DG    H2'2  311   3.326   4.797   5.653  0.1820  0.8624 -0.0320
   10DG     O3'  312   3.464   4.914   5.858 -0.8541 -0.0735 -0.3640
   11DG       P  313   3.438   4.840   5.999  0.2350 -0.0353 -0.1332
   11DG     O1P  314   3.359   4.932   6.083  0.3598 -0.2606  0.2337
   11DG     O2P  315   3.567   4.785   6.047  0.1665 -0.1208 -0.0469
   11DG     O5'  316   3.339   4.716   5.972 -0.3140  0.3578  0.0595
   11DG     C5'  317   3.203   4.733   5.941 -0.2431  0.1500 -0.3672
   11DG    H5'1  318   3.194   4.800   5.854  0.2337  1.6054  0.6609
   11DG    H5'2  319   3.156   4.791   6.021  1.6368  0.4419  0.5841
   11DG     C4'  320   3.130   4.602   5.916  0.2001 -0.2520  0.4338
   11DG     H4'  321   3.028   4.640   5.909 -0.0627 -0.3830  2.7533
   11DG     O4'  322   3.159   4.536   5.795  0.8400  0.5535  0.1369
   11DG     C1'  323   3.158   4.396   5.814  0.0302  0.5064 -0.2040
   11DG     H1'  324   3.089   4.340   5.750 -2.8980  3.5133  0.0538
   11DG      N9  325   3.296   4.348   5.796  0.0403  0.4238  0.0822
   11DG      C8  326   3.415   4.413   5.817  0.2857  0.0095 -0.0179
   11DG      H8  327   3.415   4.511   5.861 -2.5148 -0.3270  0.8959
   11DG      N7  328   3.522   4.344   5.788  0.2546 -0.2017  0.3665
   11DG      C5  329   3.474   4.219   5.752 -0.1822  0.2155 -0.5213
   11DG      C6  330   3.534   4.097   5.711 -0.4325 -0.2530  0.4921
   11DG      O6  331   3.655   4.074   5.708 -0.3097  0.4540 -0.4053
   11DG      N1  332   3.449   3.990   5.687 -0.0103 -0.5475  0.2895
   11DG      H1  333   3.479   3.903   5.646  1.2680 -0.1025  0.2614
   11DG      C2  334   3.312   4.011   5.685  0.1024  0.1760 -0.2361
   11DG      N2  335   3.244   3.896   5.687 -0.0564  0.2708 -0.1643
   11DG     H21  336   3.297   3.813   5.666  0.3713  0.7671 -1.1023
   11DG     H22  337   3.148   3.894   5.718 -0.3504  0.9497 -0.9886
   11DG      N3  338   3.251   4.123   5.727  0.1541  0.0943  0.0583
   11DG      C4  339   3.337   4.222   5.760 -0.1518  0.3957 -0.0426
   11DG     C3'  340   3.140   4.499   6.029  0.4073 -0.6998  0.0137
   11DG     H3'  341   3.240   4.497   6.071  1.4723  2.5469 -2.0013
   11DG     C2'  342   3.108   4.369   5.956 -0.4995 -0.1905 -0.5158
   11DG    H2'1  343   3.153   4.278   5.995  0.1297  0.7681  1.0625
   11DG    H2'2  344   2.999   4.357   5.954 -0.4262 -0.8841 -0.4841
   11DG     O3'  345   3.043   4.520   6.130  0.6977 -0.1864  0.1925
   12DA       P  346   3.041   4.432   6.265 -0.0248  0.0371  0.3290
   12DA     O1P  347   2.910   4.448   6.332  0.0509  0.6292  0.3426
   12DA     O2P  348   3.158   4.474   6.345 -0.1014  0.3824  0.2647
   12DA     O5'  349   3.056   4.277   6.226 -0.4062  0.1272 -0.1902
   12DA     C5'  350   2.945   4.200   6.188 -0.2978  0.0831 -0.4191
   12DA    H5'1  351   2.901   4.241   6.097  1.5680  0.9202 -0.9929
   12DA    H5'2  352   2.870   4.195   6.266 -0.2773 -0.8658 -0.4492
   12DA     C4'  353   2.982   4.055   6.158 -0.2086 -0.0367  0.2606
   12DA     H4'  354   2.891   3.995   6.145  0.2951 -0.7547 -0.0353
   12DA     O4'  355   3.056   4.033   6.040 -0.3324 -0.5682  0.2766
   12DA     C1'  356   3.134   3.916   6.050 -0.1772 -0.4859  0.0427
   12DA     H1'  357   3.122   3.843   5.969  0.7945  0.7973 -1.2935
   12DA      N9  358   3.275   3.957   6.045 -0.3234  0.0463  0.2292
   12DA      C8  359   3.335   4.075   6.080 -0.1208 -0.1308  0.4905
   12DA      H8  360   3.272   4.154   6.117  0.5393 -0.7054  3.0004
   12DA      N7  361   3.466   4.074   6.074 -0.1403 -0.0545 -0.0291
   12DA      C5  362   3.493   3.946   6.029  0.0488 -0.1237  0.2751
   12DA      C6  363   3.611   3.882   5.989 -0.0215  0.0390 -0.2114
   12DA      N6  364   3.730   3.944   5.978 -0.3780  0.6391 -0.7202
   12DA     H61  365   3.721   4.044   5.976 -1.4437  0.5793  0.0290
   12DA     H62  366   3.809   3.896   5.936  1.7251  0.7533  2.7277
   12DA      N1  367   3.611   3.754   5.951  0.0763  0.1329 -0.5301
   12DA      C2  368   3.492   3.696   5.952  0.2527 -0.2346  0.3209
   12DA      H2  369   3.499   3.594   5.915 -2.2682 -0.4121  0.1738
   12DA      N3  370   3.371   3.742   5.977  0.3544  0.3761 -0.2640
   12DA      C4  371   3.379   3.870   6.018 -0.1422  0.0947  0.7546
   12DA     C3'  372   3.054   3.971   6.263  0.0574 -0.1313  0.0040
   12DA     H3'  373   3.147   4.022   6.289  0.1534 -0.7670  0.9824
   12DA     C2'  374   3.099   3.849   6.183  0.0955 -0.2642  0.2255
   12DA    H2'1  375   3.190   3.804   6.222  0.8857  1.8404  0.9614
   12DA    H2'2  376   3.020   3.780   6.155  0.7016 -1.2931  1.0076
   12DA     O3'  377   2.969   3.938   6.371 -0.0929 -0.3520 -0.1821
   13DA       P  378   3.036   3.891   6.510 -0.0395 -0.0306 -0.0981
   13DA     O1P  379   2.922   3.866   6.601  0.0359  0.1071  0.0334
   13DA     O2P  380   3.136   3.987   6.561 -0.0747  0.0709 -0.2189
   13DA     O5'  381   3.119   3.755   6.490 -0.3484 -0.2157 -0.1403
   13DA     C5'  382   3.050   3.633   6.472 -0.4589 -0.1137 -0.4062
   13DA    H5'1  383   2.966   3.650   6.405  0.4430  1.2617 -1.2256
   13DA    H5'2  384   3.002   3.610   6.567 -0.6084 -0.2084 -0.5052
   13DA     C4'  385   3.142   3.516   6.439 -0.2312  0.0203 -0.2511
   13DA     H4'  386   3.071   3.434   6.424 -2.0706  1.6204 -0.7296
   13DA     O4'  387   3.211   3.536   6.318  0.0720 -0.0873 -0.0982
   13DA     C1'  388   3.342   3.485   6.327  0.1178  0.0034 -0.2524
   13DA     H1'  389   3.356   3.418   6.242 -2.5079  0.0520 -0.8117
   13DA      N9  390   3.443   3.591   6.311  0.0368  0.0998 -0.1333
   13DA      C8  391   3.437   3.722   6.350  0.1530  0.1270 -0.2048
   13DA      H8  392   3.348   3.765   6.394  0.3943 -0.2895  0.7060
   13DA      N7  393   3.549   3.787   6.336 -0.1951  0.7065 -0.3313
   13DA      C5  394   3.636   3.691   6.286 -0.1720  0.2181  0.6264
   13DA      C6  395   3.772   3.696   6.249 -0.3730 -0.0387 -0.1595
   13DA      N6  396   3.851   3.804   6.254  0.1793 -0.4516  0.0964
   13DA     H61  397   3.802   3.891   6.268 -0.5581 -0.9408  0.6262
   13DA     H62  398   3.950   3.802   6.233 -0.0965 -1.1735 -1.2988
   13DA      N1  399   3.845   3.586   6.227  0.3997  0.2872  0.7229
   13DA      C2  400   3.773   3.475   6.225  0.3947  0.2918 -0.4044
   13DA      H2  401   3.831   3.390   6.194 -2.5627 -2.3398  0.7614
   13DA      N3  402   3.644   3.457   6.246  0.5142  0.2965  0.3673
   13DA      C4  403   3.576   3.568   6.284  0.1332  0.0737  0.3472
   13DA     C3'  404   3.246   3.481   6.545  0.2219 -0.1442 -0.7473
   13DA     H3'  405   3.277   3.574   6.594  1.7248 -0.3062 -1.3304
   13DA     C2'  406   3.349   3.409   6.459  0.4228 -0.2530 -0.4161
   13DA    H2'1  407   3.448   3.427   6.503  0.5990 -0.2249 -0.8169
   13DA    H2'2  408   3.322   3.305   6.445  0.7489 -0.1545 -1.9664
   13DA     O3'  409   3.208   3.378   6.633  0.8966  0.2213 -0.0141
   14DG       P  410   3.261   3.354   6.783  0.2434 -0.0004  0.1846
   14DG     O1P  411   3.179   3.249   6.848  0.2588 -0.1278 -0.0014
   14DG     O2P  412   3.272   3.488   6.843 -0.0239  0.1613 -0.1233
   14DG     O5'  413   3.410   3.294   6.768  0.3657  0.3119  0.1550
   14DG     C5'  414   3.437   3.157   6.751  0.5314  0.3159  0.3761
   14DG    H5'1  415   3.375   3.114   6.673  1.9796  1.0764 -1.2775
   14DG    H5'2  416   3.406   3.102   6.839  1.3629 -1.9349 -0.6560
   14DG     C4'  417   3.582   3.128   6.711  0.2705  0.0360 -0.3908
   14DG     H4'  418   3.592   3.024   6.681 -1.3557 -0.4269  0.5460
   14DG     O4'  419   3.623   3.204   6.599  0.1941  0.1002 -0.3764
   14DG     C1'  420   3.764   3.217   6.599  0.2023  0.0147 -0.4642
   14DG     H1'  421   3.799   3.170   6.507 -1.2547 -1.3702 -0.3595
   14DG      N9  422   3.791   3.361   6.587  0.2451  0.0878  0.4317
   14DG      C8  423   3.718   3.468   6.631 -0.4128  0.1092 -0.6817
   14DG      H8  424   3.623   3.460   6.682  0.8563  3.4846  2.7007
   14DG      N7  425   3.779   3.582   6.613  0.2842 -0.1036  0.2812
   14DG      C5  426   3.896   3.550   6.546 -0.1433  0.2496 -0.6480
   14DG      C6  427   4.013   3.625   6.512  0.1986  0.2843  0.5489
   14DG      O6  428   4.033   3.745   6.523 -0.1469  0.4733 -0.7531
   14DG      N1  429   4.116   3.551   6.457 -0.2893 -0.2148  0.2895
   14DG      H1  430   4.202   3.598   6.431  0.8448 -1.6550  1.2161
   14DG      C2  431   4.115   3.413   6.450 -0.1398 -0.2295  0.5510
   14DG      N2  432   4.235   3.353   6.453  0.0430  0.1309  0.4232
   14DG     H21  433   4.320   3.408   6.445  0.5474 -0.6962  0.0037
   14DG     H22  434   4.247   3.253   6.458 -1.6125 -0.0927  0.2426
   14DG      N3  435   4.011   3.339   6.492 -0.1915 -0.2734  0.3457
   14DG      C4  436   3.908   3.414   6.538  0.2560  0.2029  0.5804
   14DG     C3'  437   3.686   3.148   6.820  0.2970 -0.2780 -0.3588
   14DG     H3'  438   3.678   3.246   6.867 -0.7132 -0.2655 -0.5340
   14DG     C2'  439   3.806   3.145   6.726  0.0583 -0.4205 -0.6609
   14DG    H2'1  440   3.892   3.199   6.766  0.3287 -2.2158  1.3932
   14DG    H2'2  441   3.838   3.045   6.696  0.1452 -1.4688  2.5212
   14DG     O3'  442   3.690   3.041   6.912  0.1920 -0.0960 -0.1425
   15DG       P  443   3.750   3.067   7.060  0.2304  0.1531 -0.2018
   15DG     O1P  444   3.727   2.940   7.132  0.0698  0.1294 -0.2938
   15DG     O2P  445   3.688   3.189   7.117  0.3580 -0.0947  0.4698
   15DG     O5'  446   3.909   3.087   7.044  0.2629  0.0411 -0.0189
   15DG     C5'  447   3.996   2.989   6.993 -0.3697 -0.5961  0.1091
   15DG    H5'1  448   3.957   2.961   6.896  0.0832  0.6801 -0.4625
   15DG    H5'2  449   4.005   2.898   7.053 -0.2866 -0.5899  0.1056
   15DG     C4'  450   4.132   3.045   6.951 -0.5340 -0.2456  0.0360
   15DG     H4'  451   4.197   2.960   6.929  0.6394  0.5920  0.2206
   15DG     O4'  452   4.129   3.129   6.838 -0.2285  0.4008  0.5022
   15DG     C1'  453   4.237   3.220   6.841 -0.0852  0.2344  0.4164
   15DG     H1'  454   4.308   3.194   6.763 -0.4064 -1.8461  0.7478
   15DG      N9  455   4.186   3.358   6.831 -0.1887  0.1333 -0.5776
   15DG      C8  456   4.064   3.411   6.862  0.0890  0.5733 -0.2284
   15DG      H8  457   3.979   3.353   6.896  0.0342 -0.5293 -2.1494
   15DG      N7  458   4.055   3.539   6.838 -0.2334  0.6391  0.2150
   15DG      C5  459   4.185   3.572   6.802 -0.4351  0.4420 -0.7126
   15DG      C6  460   4.237   3.702   6.777  0.2077  0.2914 -0.1923
   15DG      O6  461   4.186   3.812   6.757 -0.1994  0.1626  0.1241
   15DG      N1  462   4.370   3.695   6.740  0.1952  0.0275 -0.1851
   15DG      H1  463   4.403   3.781   6.699 -1.8389 -0.0130 -2.0717
   15DG      C2  464   4.448   3.581   6.738 -0.0215 -0.1191 -0.3124
   15DG      N2  465   4.581   3.595   6.728  0.0118 -0.2725 -0.1041
   15DG     H21  466   4.610   3.692   6.730 -0.8359 -0.0104  1.8531
   15DG     H22  467   4.643   3.516   6.739 -0.6609 -1.0191 -1.4607
   15DG      N3  468   4.398   3.459   6.760 -0.3012  0.0847  0.1900
   15DG      C4  469   4.266   3.462   6.790 -0.4003  0.4189 -0.2765
   15DG     C3'  470   4.205   3.123   7.060  0.1290 -0.0719 -0.5246
   15DG     H3'  471   4.138   3.199   7.102 -1.1258 -2.1672  1.5119
   15DG     C2'  472   4.306   3.200   6.976  0.4462  0.2605  0.1482
   15DG    H2'1  473   4.335   3.294   7.023  0.7485 -0.2712  1.0499
   15DG    H2'2  474   4.395   3.137   6.967  0.5568  0.0610  2.2472
   15DG     O3'  475   4.267   3.044   7.159 -0.0107 -0.2246 -0.5588
   16DG       P  476   4.313   3.112   7.297 -0.2845 -0.2287 -0.4663
   16DG     O1P  477   4.366   3.004   7.382  0.0486 -0.3894 -0.8803
   16DG     O2P  478   4.198   3.196   7.339  0.4070  0.4710  0.0671
   16DG     O5'  479   4.433   3.210   7.253 -0.1365 -0.3036 -0.2327
   16DG     C5'  480   4.560   3.162   7.217 -0.1003 -0.1219 -0.3463
   16DG    H5'1  481   4.553   3.097   7.129 -1.6521 -0.6962  0.1825
   16DG    H5'2  482   4.587   3.101   7.303  2.7513  2.3610  0.7145
   16DG     C4'  483   4.666   3.271   7.201 -0.7697  0.5482 -0.2765
   16DG     H4'  484   4.762   3.227   7.172 -0.0066  2.5318 -0.9489
   16DG     O4'  485   4.613   3.348   7.096 -0.5899  0.4477 -0.4413
   16DG     C1'  486   4.658   3.480   7.115 -0.2302  0.2304  0.2847
   16DG     H1'  487   4.712   3.528   7.033  0.8913 -0.3309  0.6763
   16DG      N9  488   4.536   3.563   7.128 -0.1296  0.4495 -0.1135
   16DG      C8  489   4.407   3.528   7.155  0.0359  0.0362  0.1557
   16DG      H8  490   4.374   3.426   7.174  0.5534  0.2040  2.2368
   16DG      N7  491   4.322   3.626   7.143  0.3029  0.3222  0.5756
   16DG      C5  492   4.402   3.731   7.099 -0.2010  0.3812 -0.2229
   16DG      C6  493   4.367   3.860   7.051  0.3414  0.7712  0.4255
   16DG      O6  494   4.257   3.909   7.030 -0.0257 -0.2131  0.0324
   16DG      N1  495   4.474   3.948   7.041  0.1357  0.9622 -0.0731
   16DG      H1  496   4.462   4.049   7.038 -1.1434  0.8173 -0.6079
   16DG      C2  497   4.604   3.903   7.036 -0.2277 -0.0954 -0.2191
   16DG      N2  498   4.699   3.988   6.996 -0.4754  0.0885 -0.4117
   16DG     H21  499   4.675   4.080   6.961  1.0678  0.1628 -1.3894
   16DG     H22  500   4.788   3.946   6.973 -0.8251 -2.0841  1.8658
   16DG      N3  501   4.639   3.776   7.064  0.0942 -0.0878 -0.5772
   16DG      C4  502   4.534   3.696   7.093 -0.2261  0.3362 -0.5389
   16DG     C3'  503   4.690   3.365   7.319 -0.5496  0.1393  0.0104
   16DG     H3'  504   4.589   3.384   7.356 -0.5386  2.6457 -1.0084
   16DG     C2'  505   4.744   3.484   7.240 -0.0892  0.0523  0.1938
   16DG    H2'1  506   4.731   3.575   7.299  0.5386 -2.8140  5.4147
   16DG    H2'2  507   4.851   3.487   7.221 -0.0629  2.3224  0.3598
   16DG     O3'  508   4.786   3.327   7.415  0.0543  0.6962 -0.3663
   17DC       P  509   4.786   3.405   7.555  0.1130 -0.0260  0.0432
   17DC     O1P  510   4.895   3.344   7.634 -0.2425 -0.5525  0.1270
   17DC     O2P  511   4.651   3.406   7.615  0.1714 -0.2881  0.1801
   17DC     O5'  512   4.841   3.557   7.548  0.2771 -0.0497  0.7382
   17DC     C5'  513   4.973   3.588   7.509  0.1671 -0.5389 -0.0656
   17DC    H5'1  514   5.013   3.521   7.433  1.8849 -2.3064  2.2415
   17DC    H5'2  515   5.036   3.577   7.598  2.1608  1.1974 -1.1622
   17DC     C4'  516   4.995   3.734   7.469  0.2060 -0.4614  0.2325
   17DC     H4'  517   5.097   3.758   7.441  0.5518  0.4470  2.1094
   17DC     O4'  518   4.904   3.765   7.366  0.4878  0.3209  0.2146
   17DC     C1'  519   4.855   3.897   7.370 -0.1258  0.0812  0.8686
   17DC     H1'  520   4.897   3.946   7.282 -0.5893 -0.4788  0.3295
   17DC      N1  521   4.708   3.905   7.373 -0.1637 -0.1053 -0.2652
   17DC      C6  522   4.633   3.803   7.424 -0.0640  0.1835  0.4637
   17DC      H6  523   4.684   3.718   7.466  0.6038  1.1388  1.6586
   17DC      C5  524   4.499   3.818   7.432 -0.1742 -0.4963 -0.0327
   17DC      H5  525   4.438   3.734   7.463  0.5088 -1.3428 -0.9245
   17DC      C4  526   4.442   3.941   7.386  0.1149 -0.3453  0.0110
   17DC      N4  527   4.311   3.964   7.372  0.1097 -0.2923  0.1535
   17DC     H41  528   4.249   3.896   7.414 -0.3284 -1.0414 -1.6229
   17DC     H42  529   4.277   4.049   7.330  0.6967  0.0279  0.3085
   17DC      N3  530   4.516   4.036   7.328 -0.1690  0.0413  0.2775
   17DC      C2  531   4.652   4.027   7.339 -0.1827  0.0964  0.4831
   17DC      O2  532   4.721   4.124   7.308 -0.1254  0.0594  0.4986
   17DC     C3'  533   4.951   3.838   7.571 -0.2025 -0.3633 -0.0400
   17DC     H3'  534   4.869   3.784   7.617  1.4843 -2.3503  0.8191
   17DC     C2'  535   4.919   3.964   7.492 -0.4542  0.2176  0.9652
   17DC    H2'1  536   4.847   4.030   7.541 -1.0818  1.4235 -1.4036
   17DC    H2'2  537   5.008   4.018   7.461 -0.3787 -0.1832  0.4673
   17DC     O3'  538   5.060   3.860   7.659  0.0157 -0.0029 -0.3954
   18DA       P  539   5.037   3.919   7.807  0.2451  0.3337 -0.4953
   18DA     O1P  540   5.173   3.936   7.861  0.1406 -0.0581 -0.1071
   18DA     O2P  541   4.940   3.842   7.888  0.2052  0.5408 -0.3466
   18DA     O5'  542   4.975   4.067   7.787  0.0177  0.2615 -0.3235
   18DA     C5'  543   5.062   4.169   7.744  0.2491  0.3404  0.3195
   18DA    H5'1  544   5.095   4.150   7.642 -0.6566  0.9825 -0.1111
   18DA    H5'2  545   5.143   4.180   7.816 -0.5460  0.5800  1.2127
   18DA     C4'  546   4.984   4.301   7.742 -0.3389 -0.0082 -0.0131
   18DA     H4'  547   5.058   4.377   7.720  0.1403 -0.7425 -1.0174
   18DA     O4'  548   4.902   4.296   7.627  0.2222  0.3333 -0.4304
   18DA     C1'  549   4.791   4.376   7.658  0.1227 -0.0287  0.1765
   18DA     H1'  550   4.782   4.457   7.585  1.6986 -0.4969 -0.5815
   18DA      N9  551   4.668   4.294   7.658  0.2807 -0.2676 -0.2697
   18DA      C8  552   4.649   4.160   7.678  0.1398 -0.2843 -0.5101
   18DA      H8  553   4.729   4.108   7.728  0.6090  1.8423  1.0996
   18DA      N7  554   4.524   4.123   7.669 -0.0352  0.1489  0.0891
   18DA      C5  555   4.457   4.239   7.633  0.0560  0.1471 -0.0830
   18DA      C6  556   4.324   4.260   7.592  0.2228  0.0153 -0.6970
   18DA      N6  557   4.224   4.171   7.588  0.0208  0.2376 -0.5695
   18DA     H61  558   4.241   4.071   7.590 -1.2872 -0.0667 -2.4254
   18DA     H62  559   4.141   4.219   7.557  0.5647  0.3345 -1.8969
   18DA      N1  560   4.287   4.385   7.561  0.2632  0.0180 -0.7288
   18DA      C2  561   4.379   4.480   7.566  0.2737  0.0020 -0.6255
   18DA      H2  562   4.355   4.584   7.547  1.5140  0.6072  0.9271
   18DA      N3  563   4.509   4.468   7.584  0.1815 -0.1296 -0.0503
   18DA      C4  564   4.543   4.345   7.628  0.2733 -0.0205  0.1833
   18DA     C3'  565   4.905   4.341   7.867  0.2485 -0.1853  0.4186
   18DA     H3'  566   4.848   4.254   7.899 -0.6632 -1.7751 -4.5959
   18DA     C2'  567   4.811   4.438   7.796  0.4556 -0.1559  0.1844
   18DA    H2'1  568   4.721   4.444   7.856  0.3480  0.6110 -0.0462
   18DA    H2'2  569   4.852   4.538   7.788  1.9839 -0.5774  1.9567
   18DA     O3'  570   4.992   4.406   7.956 -0.0011  0.4431  0.2084
   19DT       P  571   4.940   4.435   8.106 -0.3908  0.0291  0.1521
   19DT     O1P  572   5.052   4.499   8.178  0.0328 -0.5093 -0.0211
   19DT     O2P  573   4.892   4.303   8.153  0.3808 -0.2105  0.2810
   19DT     O5'  574   4.820   4.542   8.099 -0.5883 -0.1731  0.3997
   19DT     C5'  575   4.844   4.679   8.076 -0.2697 -0.2591  0.2088
   19DT    H5'1  576   4.918   4.692   7.998  0.6098 -2.5289  0.6052
   19DT    H5'2  577   4.880   4.725   8.169  0.2388 -0.7912  0.2785
   19DT     C4'  578   4.714   4.749   8.037 -0.0652 -0.0382 -0.0739
   19DT     H4'  579   4.746   4.849   8.005  1.3462 -0.6725 -0.7435
   19DT     O4'  580   4.655   4.674   7.934  0.3453 -0.1841 -0.2070
   19DT     C1'  581   4.516   4.699   7.940  0.3108 -0.4053 -0.0560
   19DT     H1'  582   4.490   4.749   7.847 -1.7290  2.4791  1.8902
   19DT      N1  583   4.433   4.577   7.951  0.0333 -0.2799 -0.7227
   19DT      C6  584   4.487   4.460   7.995  0.1082  0.1001  0.2272
   19DT      H6  585   4.585   4.464   8.040  0.2704  2.5597 -0.1932
   19DT      C5  586   4.424   4.343   7.972 -0.0543  0.1872  0.2223
   19DT      C7  587   4.483   4.210   8.012  0.1040  0.2453  0.1834
   19DT     H71  588   4.467   4.141   7.929 -0.8971  3.1344 -2.1587
   19DT     H72  589   4.590   4.219   8.029  0.6453 -0.3391 -2.4449
   19DT     H73  590   4.436   4.175   8.104  0.1881 -1.7511 -0.4779
   19DT      C4  591   4.289   4.337   7.919  0.1823 -0.1704 -0.3585
   19DT      O4  592   4.218   4.238   7.906  0.1064 -0.2430  0.5243
   19DT      N3  593   4.243   4.461   7.878 -0.3920 -0.2320  0.0856
   19DT      H3  594   4.153   4.465   7.832  0.5171  0.7124 -1.7492
   19DT      C2  595   4.308   4.583   7.892 -0.5061 -0.2066  0.4040
   19DT      O2  596   4.253   4.681   7.841 -0.4033 -0.2854  0.1386
   19DT     C3'  597   4.605   4.768   8.142  0.4268 -0.1128  0.4546
   19DT     H3'  598   4.599   4.673   8.195  1.4759 -0.3264  0.2195
   19DT     C2'  599   4.479   4.787   8.059  0.6397 -0.4198  0.0591
   19DT    H2'1  600   4.389   4.760   8.114 -0.6089  2.1605 -0.5375
   19DT    H2'2  601   4.462   4.889   8.026 -0.6735  0.0649  2.0630
   19DT     O3'  602   4.616   4.885   8.220  0.8848 -0.2762  0.6402
   20DC       P  603   4.571   4.888   8.375 -0.3581  0.0111  0.2832
   20DC     O1P  604   4.628   5.004   8.447  0.2472 -0.3833  0.4437
   20DC     O2P  605   4.589   4.750   8.428 -0.7525  0.1709  0.8375
   20DC     O5'  606   4.412   4.906   8.356 -0.3202  0.4256  0.3593
   20DC     C5'  607   4.355   5.021   8.298  0.2225  0.4938 -0.0528
   20DC    H5'1  608   4.402   5.043   8.203  1.3755  0.6687  0.5434
   20DC    H5'2  609   4.373   5.116   8.349 -1.7978  0.9507 -0.1080
   20DC     C4'  610   4.205   4.999   8.276  0.2362  0.1598  0.1684
   20DC     H4'  611   4.158   5.089   8.236  0.1053  0.5835  1.2554
   20DC     O4'  612   4.182   4.905   8.174 -0.2060  0.0968  0.3265
   20DC     C1'  613   4.055   4.849   8.198 -0.3346  0.1603 -0.1773
   20DC     H1'  614   3.993   4.885   8.116 -1.4081  1.0048  0.9414
   20DC      N1  615   4.066   4.702   8.199  0.3571  0.2083 -0.2217
   20DC      C6  616   4.176   4.629   8.230 -0.2117 -0.5771 -0.0255
   20DC      H6  617   4.262   4.683   8.268 -2.2049  2.3869  0.5789
   20DC      C5  618   4.186   4.495   8.217  0.4749 -0.6050  0.6925
   20DC      H5  619   4.275   4.436   8.235 -0.1203 -1.6834  0.1792
   20DC      C4  620   4.063   4.428   8.185  0.5673 -0.3827 -0.1681
   20DC      N4  621   4.059   4.295   8.175 -0.0921 -0.3684 -0.1034
   20DC     H41  622   4.122   4.240   8.230  0.7947  0.1193 -0.6115
   20DC     H42  623   3.978   4.253   8.131 -0.5771  0.6033 -0.1532
   20DC      N3  624   3.953   4.497   8.153  0.9511  0.2922 -0.0726
   20DC      C2  625   3.953   4.632   8.160  0.2744  0.2987 -0.1447
   20DC      O2  626   3.844   4.682   8.130  0.1368 -0.1587 -0.4175
   20DC     C3'  627   4.125   4.955   8.397  0.1704  0.2531  0.1591
   20DC     H3'  628   4.184   4.882   8.452 -2.3923  0.0113  2.8893
   20DC     C2'  629   4.002   4.888   8.336  0.4318 -0.3181  0.2572
   20DC    H2'1  630   3.954   4.807   8.391 -3.4353  0.4826 -1.6199
   20DC    H2'2  631   3.930   4.970   8.328  1.8398  1.2655  2.4296
   20DC     O3'  632   4.078   5.049   8.492  0.1168  0.3150  0.0719
   21DT       P  633   4.042   5.011   8.644  0.4121 -0.1580  0.0265
   21DT     O1P  634   4.008   5.133   8.722  0.7679  0.2009 -0.3755
   21DT     O2P  635   4.159   4.934   8.691 -0.1062 -1.1351 -0.2604
   21DT     O5'  636   3.908   4.924   8.625  0.2615  0.2067 -0.6018
   21DT     C5'  637   3.784   4.985   8.596  0.0547 -0.2647 -0.7211
   21DT    H5'1  638   3.805   5.051   8.512  2.2538 -0.7139 -0.5793
   21DT    H5'2  639   3.751   5.047   8.680  0.3237  0.6044 -1.2487
   21DT     C4'  640   3.664   4.892   8.581 -0.3242 -0.0131  0.5814
   21DT     H4'  641   3.569   4.942   8.561 -0.8931 -2.0413 -2.4544
   21DT     O4'  642   3.687   4.809   8.469 -0.1282  0.0377  0.5850
   21DT     C1'  643   3.632   4.684   8.501 -0.5788 -0.1089 -0.7138
   21DT     H1'  644   3.552   4.663   8.430 -0.7097 -4.3590  0.3758
   21DT      N1  645   3.723   4.568   8.491  0.0160  0.2971 -0.0834
   21DT      C6  646   3.857   4.576   8.515  0.0446  0.2103 -0.2125
   21DT      H6  647   3.895   4.668   8.558 -1.0075  0.3916  0.3646
   21DT      C5  648   3.933   4.466   8.499 -0.3203 -0.0834  0.0558
   21DT      C7  649   4.079   4.474   8.539 -0.3749  0.0583  0.2273
   21DT     H71  650   4.083   4.442   8.643  0.6750  1.9525  0.8202
   21DT     H72  651   4.138   4.415   8.470 -0.0952 -1.2128  1.5037
   21DT     H73  652   4.117   4.576   8.533 -2.4316  0.9496  1.2596
   21DT      C4  653   3.883   4.338   8.455  0.2137 -0.3294  0.1528
   21DT      O4  654   3.948   4.234   8.446  0.6310 -0.0748  0.1873
   21DT      N3  655   3.749   4.346   8.421  0.0541  0.3090  0.9034
   21DT      H3  656   3.705   4.263   8.384 -1.5828  2.0557 -1.3986
   21DT      C2  657   3.663   4.453   8.444 -0.2531  0.1062  0.7054
   21DT      O2  658   3.545   4.437   8.414  0.0463 -0.3343 -0.2879
   21DT     C3'  659   3.652   4.802   8.703 -0.0704 -0.5556  0.2071
   21DT     H3'  660   3.755   4.779   8.731  0.2573  1.7284  1.0036
   21DT     C2'  661   3.569   4.690   8.640 -0.0173 -0.2264 -0.4519
   21DT    H2'1  662   3.571   4.597   8.697 -0.7415 -0.6368 -1.0756
   21DT    H2'2  663   3.464   4.716   8.627  0.1193  0.8199  0.4012
   21DT     O3'  664   3.573   4.859   8.805  0.3140  0.0693  0.1568
   22DG       P  665   3.564   4.790   8.950 -0.3863  0.1288  0.1470
   22DG     O1P  666   3.500   4.889   9.039 -0.6278  0.3276 -0.2453
   22DG     O2P  667   3.701   4.748   8.989 -0.1292  0.7602 -0.0653
   22DG     O5'  668   3.467   4.663   8.937  0.1357 -0.2338 -0.2864
   22DG     C5'  669   3.326   4.670   8.926  0.0915 -0.1033  0.3367
   22DG    H5'1  670   3.309   4.745   8.849 -0.5699  0.3470  0.9092
   22DG    H5'2  671   3.272   4.700   9.016  0.9606 -0.2567  0.9227
   22DG     C4'  672   3.265   4.536   8.886  0.5032 -0.1078 -0.2912
   22DG     H4'  673   3.158   4.553   8.881  0.5076  0.4955  1.0571
   22DG     O4'  674   3.314   4.491   8.762  0.1378  0.5709 -0.6873
   22DG     C1'  675   3.329   4.351   8.766  0.5316  0.6444  0.9745
   22DG     H1'  676   3.271   4.304   8.687 -0.6450  1.0514  1.5639
   22DG      N9  677   3.467   4.301   8.758  0.1242 -0.3592  0.0732
   22DG      C8  678   3.580   4.361   8.807 -0.1697  0.1232  0.1618
   22DG      H8  679   3.572   4.460   8.849 -1.3588  0.2296 -0.2692
   22DG      N7  680   3.687   4.288   8.793 -0.0021  0.2980  0.5061
   22DG      C5  681   3.638   4.166   8.746  0.3486  0.1811  0.4358
   22DG      C6  682   3.703   4.043   8.718  0.2350  0.3272 -0.4937
   22DG      O6  683   3.823   4.022   8.727  0.1354 -0.1194 -0.1834
   22DG      N1  684   3.620   3.938   8.681  0.1767  0.2652 -0.1921
   22DG      H1  685   3.660   3.846   8.691  3.7978  1.8290  1.2501
   22DG      C2  686   3.483   3.954   8.673  0.1075 -0.1015  0.2395
   22DG      N2  687   3.414   3.840   8.662 -0.0269 -0.0292  0.3265
   22DG     H21  688   3.467   3.756   8.645  0.8491  0.8760 -1.7506
   22DG     H22  689   3.314   3.836   8.677 -0.2725 -0.3214 -1.1537
   22DG      N3  690   3.419   4.071   8.690  0.0656 -0.1380  0.3367
   22DG      C4  691   3.502   4.171   8.728  0.3573 -0.3295  0.2162
   22DG     C3'  692   3.286   4.424   8.987  0.1300 -0.0030 -0.0968
   22DG     H3'  693   3.391   4.416   9.016 -0.0590 -2.8476  0.1028
   22DG     C2'  694   3.252   4.310   8.892 -0.6005  0.0438  0.1051
   22DG    H2'1  695   3.274   4.216   8.943 -0.9061  0.0352  0.2249
   22DG    H2'2  696   3.147   4.309   8.863 -0.8051  0.4760  0.8137
   22DG     O3'  697   3.193   4.435   9.093  0.1787 -0.2556 -0.0273
   23DC       P  698   3.219   4.359   9.233  0.0440 -0.0034  0.1358
   23DC     O1P  699   3.112   4.392   9.330  0.1750  0.0509  0.2604
   23DC     O2P  700   3.362   4.373   9.266 -0.0215  0.2499  0.3174
   23DC     O5'  701   3.193   4.206   9.188  0.2577  0.1385 -0.4852
   23DC     C5'  702   3.073   4.136   9.211  0.2963  0.1084 -0.3764
   23DC    H5'1  703   2.997   4.177   9.146  1.5763  2.6933 -0.3537
   23DC    H5'2  704   3.037   4.131   9.314  1.1050  1.7513  0.0172
   23DC     C4'  705   3.104   3.993   9.167 -0.2423  0.0093 -0.4379
   23DC     H4'  706   3.007   3.943   9.165 -0.8157  0.9295 -4.0975
   23DC     O4'  707   3.170   3.984   9.043  0.1627 -0.1095 -0.2149
   23DC     C1'  708   3.260   3.875   9.043  0.1838 -0.0916  0.1771
   23DC     H1'  709   3.224   3.813   8.961  1.0986  2.3659 -2.2174
   23DC      N1  710   3.403   3.906   9.025  0.0545  0.2940 -0.1848
   23DC      C6  711   3.458   4.021   9.071 -0.1797  0.4144 -0.2036
   23DC      H6  712   3.390   4.097   9.106 -1.2286 -0.1652 -0.9641
   23DC      C5  713   3.592   4.037   9.081 -0.1350 -0.1675  0.1455
   23DC      H5  714   3.631   4.135   9.106 -1.0188 -0.1041  1.3890
   23DC      C4  715   3.674   3.927   9.040 -0.1865 -0.0673 -0.2234
   23DC      N4  716   3.806   3.946   9.022 -0.0665 -0.1941  0.4883
   23DC     H41  717   3.838   4.040   9.042 -1.1397  0.5662 -1.1435
   23DC     H42  718   3.868   3.879   8.979  1.8629  2.7180 -1.6795
   23DC      N3  719   3.623   3.816   8.986  0.0649 -0.2054 -0.1795
   23DC      C2  720   3.488   3.808   8.976  0.0249  0.1430  0.0682
   23DC      O2  721   3.443   3.704   8.928 -0.0591  0.1118  0.2157
   23DC     C3'  722   3.191   3.919   9.268 -0.1113  0.3280 -0.3141
   23DC     H3'  723   3.273   3.977   9.309  2.2245 -2.3653 -0.8829
   23DC     C2'  724   3.238   3.805   9.177  0.3144  0.0361  0.2644
   23DC    H2'1  725   3.323   3.746   9.210  1.6583  1.1652 -1.0523
   23DC    H2'2  726   3.159   3.732   9.160  1.7885 -1.2357 -1.5366
   23DC     O3'  727   3.116   3.873   9.378  0.1557  0.4264 -0.0904
   24DG       P  728   3.200   3.826   9.507 -0.1633  0.1215  0.0073
   24DG     O1P  729   3.098   3.811   9.614 -0.3683 -0.3594 -0.2517
   24DG     O2P  730   3.314   3.916   9.536 -0.2781  0.2798 -0.0345
   24DG     O5'  731   3.267   3.684   9.468 -0.2787  0.0594  0.0339
   24DG     C5'  732   3.193   3.566   9.488 -0.0174 -0.1800 -0.4116
   24DG    H5'1  733   3.111   3.570   9.416 -0.6602  0.1681  0.3299
   24DG    H5'2  734   3.160   3.562   9.592  0.6873 -0.6575 -0.2027
   24DG     C4'  735   3.282   3.449   9.448  0.0608 -0.1500 -0.3244
   24DG     H4'  736   3.226   3.355   9.443 -0.4510  0.1753 -0.8300
   24DG     O4'  737   3.337   3.458   9.319  0.1260 -0.6159 -0.3331
   24DG     C1'  738   3.470   3.413   9.325  0.3994  0.1793 -0.2296
   24DG     H1'  739   3.482   3.335   9.250  1.0407 -1.7170  1.7278
   24DG      N9  740   3.568   3.522   9.312  0.3408  0.2917  0.2717
   24DG      C8  741   3.562   3.659   9.321 -0.0203  0.2721  0.3626
   24DG      H8  742   3.473   3.709   9.355  0.5743  1.8169 -0.2566
   24DG      N7  743   3.672   3.724   9.294 -0.0447 -0.0013 -0.4329
   24DG      C5  744   3.760   3.619   9.269  0.1930  0.0002  0.3546
   24DG      C6  745   3.898   3.629   9.239  0.1869  0.3417  0.4283
   24DG      O6  746   3.967   3.730   9.234 -0.0560  0.4857 -0.0225
   24DG      N1  747   3.958   3.504   9.227  0.0320  0.2752  0.3427
   24DG      H1  748   4.056   3.501   9.202 -0.1189  2.1681 -0.6356
   24DG      C2  749   3.886   3.387   9.236  0.1680  0.1808  0.2019
   24DG      N2  750   3.963   3.277   9.222  0.1917  0.1573  0.5133
   24DG     H21  751   4.063   3.287   9.222  0.0488  2.3428 -0.3770
   24DG     H22  752   3.921   3.186   9.212  0.3201 -0.0364  1.6472
   24DG      N3  753   3.754   3.376   9.257  0.1432 -0.0841 -0.0794
   24DG      C4  754   3.698   3.498   9.275  0.3718 -0.0791  0.6210
   24DG     C3'  755   3.400   3.427   9.543  0.1366  0.2331 -0.3291
   24DG     H3'  756   3.454   3.520   9.559 -2.6124  1.6993  1.1473
   24DG     C2'  757   3.492   3.340   9.458  0.0899  0.0847 -0.2295
   24DG    H2'1  758   3.594   3.342   9.494 -0.4011 -0.4251  1.2446
   24DG    H2'2  759   3.441   3.244   9.456  1.8004 -0.8460 -0.7751
   24DG     O3'  760   3.354   3.372   9.665  0.6104 -0.6876 -0.5569
   25DC       P  761   3.450   3.340   9.791 -0.2757  0.3169  0.3970
   25DC     O1P  762   3.366   3.266   9.887  0.1052 -0.4624  0.1389
   25DC     O2P  763   3.498   3.474   9.828  0.4761  0.0269  0.4824
   25DC     O5'  764   3.582   3.258   9.749 -0.4655  0.4886 -0.5583
   25DC     C5'  765   3.596   3.123   9.712  0.3026  0.3435  0.2253
   25DC    H5'1  766   3.535   3.111   9.622  2.8225 -3.4302 -1.2181
   25DC    H5'2  767   3.553   3.062   9.792 -0.3139  0.6452  0.1307
   25DC     C4'  768   3.739   3.083   9.679  0.1228 -0.1866  0.0826
   25DC     H4'  769   3.734   2.978   9.650  0.8251 -0.8504  2.1833
   25DC     O4'  770   3.781   3.155   9.565 -0.6713 -0.2729 -0.2741
   25DC     C1'  771   3.918   3.188   9.578 -0.8852  0.4128  0.3675
   25DC     H1'  772   3.963   3.136   9.493 -0.1137  0.8885  0.4849
   25DC      N1  773   3.943   3.333   9.574 -0.0147  0.2568 -0.1940
   25DC      C6  774   3.851   3.425   9.616 -0.0828 -0.0032  0.2320
   25DC      H6  775   3.758   3.385   9.653  0.2326 -0.7874  0.2067
   25DC      C5  776   3.874   3.558   9.617 -0.0834  0.0000 -0.2408
   25DC      H5  777   3.797   3.620   9.660  0.3332 -0.4689  1.2430
   25DC      C4  778   4.004   3.598   9.572  0.1796 -0.0883  0.4273
   25DC      N4  779   4.028   3.730   9.559  0.1769 -0.0852  0.4578
   25DC     H41  780   3.954   3.794   9.582  0.6271  0.2528  0.9717
   25DC     H42  781   4.116   3.759   9.520 -0.2021 -1.5172 -1.6911
   25DC      N3  782   4.097   3.512   9.530  0.1462  0.3611 -0.6016
   25DC      C2  783   4.067   3.380   9.538 -0.1345  0.4369 -0.3699
   25DC      O2  784   4.154   3.309   9.487 -0.1825  0.2529 -0.1966
   25DC     C3'  785   3.842   3.112   9.788 -0.1217 -0.1059  0.2928
   25DC     H3'  786   3.824   3.205   9.841 -0.1331 -0.0965  0.2720
   25DC     C2'  787   3.968   3.115   9.702 -0.4640 -0.3391 -0.2298
   25DC    H2'1  788   4.047   3.175   9.748 -0.2075 -1.1252  0.3661
   25DC    H2'2  789   4.008   3.016   9.681  0.3332 -0.3372  1.1195
   25DC     O3'  790   3.847   3.007   9.881 -0.6848 -0.5851 -0.2067
   25DC     H3T  791   3.921   2.949   9.859 -0.7854 -0.9306  0.3382
   26G      O5'  792   5.046   3.934   9.122  0.1688  0.6262 -0.2077
   26G      H5T  793   5.051   3.980   9.206  2.3907 -0.0625  0.1114
   26G      C5'  794   5.130   3.821   9.122 -0.1335  0.3999 -0.2928
   26G     H5'1  795   5.217   3.838   9.186 -0.4556  0.0532  0.2469
   26G     H5'2  796   5.168   3.803   9.021 -1.3886 -2.2873 -0.3559
   26G      C4'  797   5.055   3.698   9.173  0.6659 -0.0271 -0.1253
   26G      H4'  798   5.123   3.617   9.201 -0.3864 -0.1640  2.2971
   26G      O4'  799   4.977   3.728   9.286  0.0025  0.3018 -0.6682
   26G      C1'  800   4.868   3.639   9.290  0.3402 -0.0868 -0.0724
   26G      H1'  801   4.882   3.567   9.371 -0.0262  0.2355  0.2782
   26G       N9  802   4.744   3.716   9.305 -0.0686 -0.6509 -0.5226
   26G       C8  803   4.720   3.851   9.293  0.2026 -0.4901  0.6327
   26G       H8  804   4.795   3.923   9.265  1.1341 -1.4374  0.6501
   26G       N7  805   4.598   3.885   9.325  0.0719 -0.5140  0.1744
   26G       C5  806   4.535   3.768   9.364 -0.3874 -0.3376 -0.0464
   26G       C6  807   4.403   3.745   9.412 -0.3820  0.3423  0.2891
   26G       O6  808   4.307   3.822   9.415 -0.7192 -0.0643  0.0153
   26G       N1  809   4.375   3.610   9.424 -0.0720  0.2321 -0.2201
   26G       H1  810   4.277   3.591   9.441 -0.5473  1.4931 -1.3691
   26G       C2  811   4.472   3.513   9.410 -0.0266  0.2805 -0.2329
   26G       N2  812   4.431   3.385   9.414 -0.7116  0.4987 -0.1064
   26G      H21  813   4.333   3.362   9.409 -1.0470  1.7626  0.2216
   26G      H22  814   4.503   3.314   9.423  1.1274  2.0143 -1.7664
   26G       N3  815   4.601   3.536   9.381  0.0670 -0.0891 -0.1210
   26G       C4  816   4.627   3.667   9.359 -0.0500 -0.0315  0.0871
   26G      C3'  817   4.958   3.639   9.072  0.1746  0.0813  0.2789
   26G      H3'  818   4.912   3.726   9.023  2.6033 -0.0149 -2.4502
   26G      C2'  819   4.866   3.557   9.161 -0.2748  0.0853 -0.1731
   26G     H2'1  820   4.767   3.552   9.116  0.1232  1.9520 -1.3411
   26G      O2'  821   4.907   3.425   9.189 -0.1473  0.1181 -0.2046
   26G     HO'2  822   4.866   3.372   9.120  3.5259  0.6107 -3.1150
   26G      O3'  823   5.012   3.558   8.970 -0.0168 -0.0343  0.2696
   27C        P  824   4.933   3.516   8.836  0.3578  0.0211  0.0294
   27C      O1P  825   5.025   3.431   8.757  0.2156  0.1472 -0.2710
   27C      O2P  826   4.879   3.639   8.775  0.3661  0.1264  0.2336
   27C      O5'  827   4.806   3.420   8.860  0.5265 -0.1671  0.1838
   27C      C5'  828   4.820   3.285   8.899  0.2491 -0.0721  0.6192
   27C     H5'1  829   4.881   3.268   8.987 -2.4047 -2.3500  2.1715
   27C     H5'2  830   4.862   3.233   8.813 -1.0759  2.2599 -1.6253
   27C      C4'  831   4.687   3.219   8.932  0.0777 -0.1336 -0.1635
   27C      H4'  832   4.695   3.111   8.950 -1.8673 -0.0805  1.4125
   27C      O4'  833   4.641   3.272   9.054  0.0624  0.1421 -0.2887
   27C      C1'  834   4.500   3.268   9.056  0.0714 -0.0478 -0.0685
   27C      H1'  835   4.456   3.205   9.134 -0.1381 -0.5860 -0.6130
   27C       N1  836   4.437   3.401   9.067 -0.3235 -0.2425  0.0586
   27C       C6  837   4.502   3.513   9.024 -0.4043 -0.3044 -0.2241
   27C       H6  838   4.597   3.506   8.975  0.2652  0.2361  0.9424
   27C       C5  839   4.439   3.632   9.033  0.0420 -0.0839  0.0335
   27C       H5  840   4.488   3.719   8.992  1.0944 -0.0937  1.2344
   27C       C4  841   4.308   3.636   9.092  0.0195  0.4682 -0.0493
   27C       N4  842   4.256   3.754   9.129 -0.0987  0.3511  0.1564
   27C      H41  843   4.316   3.835   9.120  1.4408 -0.8449 -1.0385
   27C      H42  844   4.164   3.755   9.171 -1.2044  0.0167 -2.0813
   27C       N3  845   4.240   3.529   9.134  0.3939  0.2842  0.0919
   27C       C2  846   4.310   3.414   9.120 -0.3000 -0.1395  0.0925
   27C       O2  847   4.255   3.309   9.154 -0.3617 -0.1675 -0.0897
   27C      C3'  848   4.568   3.235   8.838  0.1514 -0.0572 -0.2423
   27C      H3'  849   4.572   3.334   8.793  2.7249  1.1953  2.4068
   27C      C2'  850   4.451   3.200   8.929  0.3685 -0.2973 -0.0531
   27C     H2'1  851   4.357   3.244   8.895  0.4238  1.6505  2.1108
   27C      O2'  852   4.431   3.061   8.932 -0.0177 -0.2530 -0.4105
   27C     HO'2  853   4.432   3.039   8.839  0.1592 -0.8977 -0.2621
   27C      O3'  854   4.584   3.133   8.741  0.3873 -0.0465 -0.2152
   28G        P  855   4.522   3.145   8.593 -0.1805  0.1143  0.0350
   28G      O1P  856   4.570   3.027   8.518 -0.5514 -0.1252  0.1697
   28G      O2P  857   4.553   3.281   8.543 -0.5830  0.1366 -0.1626
   28G      O5'  858   4.362   3.133   8.611 -0.1620 -0.2899 -0.0529
   28G      C5'  859   4.309   3.004   8.628 -0.2016 -0.2775 -0.0819
   28G     H5'1  860   4.371   2.947   8.698  1.1197 -0.8906 -1.6841
   28G     H5'2  861   4.290   2.951   8.535 -3.5919  0.9144 -0.1967
   28G      C4'  862   4.169   3.027   8.685  0.0093  0.3597  0.1902
   28G      H4'  863   4.137   2.927   8.714 -2.2811  1.0317  0.1795
   28G      O4'  864   4.161   3.113   8.796 -0.0470  0.4250  0.1351
   28G      C1'  865   4.045   3.193   8.795 -0.2485  0.1376  0.4176
   28G      H1'  866   3.988   3.174   8.886 -0.3894  0.3214  0.3702
   28G       N9  867   4.069   3.338   8.785  0.0108  0.0731  0.0875
   28G       C8  868   4.188   3.405   8.776  0.3981 -0.5976  0.2063
   28G       H8  869   4.276   3.351   8.744  1.7400 -0.3261  3.0842
   28G       N7  870   4.175   3.533   8.795  0.0381 -0.5734 -0.2047
   28G       C5  871   4.045   3.552   8.840  0.2382 -0.0873  0.1696
   28G       C6  872   3.974   3.663   8.894 -0.1167 -0.3948  0.3422
   28G       O6  873   4.013   3.780   8.904 -0.3671 -0.3041  0.2425
   28G       N1  874   3.842   3.636   8.925 -0.2994  0.2279  0.1232
   28G       H1  875   3.788   3.710   8.968  1.7447  1.3004  1.0174
   28G       C2  876   3.788   3.509   8.914  0.5879 -0.2275  0.8904
   28G       N2  877   3.657   3.490   8.935  0.4752 -0.3343  0.1116
   28G      H21  878   3.607   3.575   8.955  1.1156  0.5897 -1.9152
   28G      H22  879   3.613   3.401   8.916 -0.2845  0.0806 -0.0817
   28G       N3  880   3.847   3.408   8.850  0.0471 -0.0988  0.1782
   28G       C4  881   3.979   3.433   8.830  0.0338  0.0191  0.2454
   28G      C3'  882   4.074   3.086   8.581 -0.2074 -0.1260  0.1114
   28G      H3'  883   4.138   3.155   8.528  2.1186 -1.2562  1.3092
   28G      C2'  884   3.968   3.150   8.670  0.0157 -0.0435  0.3177
   28G     H2'1  885   3.925   3.235   8.616 -0.2581  0.9754  2.0552
   28G      O2'  886   3.866   3.068   8.722 -0.2074  0.0539  0.0339
   28G     HO'2  887   3.792   3.094   8.666  1.8343  2.9843 -1.5888
   28G      O3'  888   4.024   2.994   8.487  0.6082 -0.2772 -0.1784
   29C        P  889   3.993   3.037   8.335  0.1583  0.0236 -0.0048
   29C      O1P  890   3.968   2.915   8.255  0.5609  0.1521 -0.3351
   29C      O2P  891   4.087   3.140   8.284 -0.1139  0.1978 -0.1552
   29C      O5'  892   3.855   3.118   8.345  0.2442  0.0771  0.8059
   29C      C5'  893   3.739   3.048   8.382 -0.0463  0.2356  0.2195
   29C     H5'1  894   3.760   2.981   8.466 -0.2158 -2.8833 -2.0588
   29C     H5'2  895   3.700   2.995   8.295 -0.5516  0.8644  0.0597
   29C      C4'  896   3.623   3.137   8.426 -0.5896 -0.2620 -0.1933
   29C      H4'  897   3.547   3.064   8.456  0.5150 -0.4927  2.2872
   29C      O4'  898   3.652   3.206   8.546  0.0860 -0.4466 -0.2475
   29C      C1'  899   3.584   3.329   8.545  0.9572  0.0464 -0.1404
   29C      H1'  900   3.524   3.336   8.636 -0.1915  0.1802 -0.8785
   29C       N1  901   3.676   3.444   8.534  0.4478  0.4880  0.1476
   29C       C6  902   3.805   3.427   8.495  0.2790  0.1892 -0.2963
   29C       H6  903   3.843   3.332   8.458 -2.1163 -0.1647 -2.0773
   29C       C5  904   3.887   3.533   8.511  0.2864  0.1524 -0.0864
   29C       H5  905   3.994   3.528   8.494  0.3717  0.2588  0.4079
   29C       C4  906   3.828   3.656   8.554  0.0819 -0.0443  0.1949
   29C       N4  907   3.909   3.760   8.577 -0.3861  0.2769  0.4097
   29C      H41  908   3.993   3.767   8.522 -1.8799  1.5915 -1.8890
   29C      H42  909   3.882   3.845   8.625  1.1032 -0.1818  2.1352
   29C       N3  910   3.703   3.673   8.600 -0.0834  0.5022 -0.4478
   29C       C2  911   3.625   3.564   8.580  0.0987  0.1676  0.6105
   29C       O2  912   3.509   3.575   8.619 -0.3046 -0.2226 -0.4271
   29C      C3'  913   3.571   3.236   8.322 -0.0518  0.2626  0.0328
   29C      H3'  914   3.645   3.299   8.274 -1.8308 -0.3040 -3.8330
   29C      C2'  915   3.489   3.311   8.426  0.1919 -0.0857  0.4815
   29C     H2'1  916   3.470   3.409   8.381 -0.3698  0.1586  1.2311
   29C      O2'  917   3.376   3.237   8.467 -0.0324  0.1216  0.2469
   29C     HO'2  918   3.375   3.172   8.397  2.7285  0.8024 -0.5610
   29C      O3'  919   3.484   3.175   8.230 -0.2469  0.2322  0.2351
   30A        P  920   3.461   3.239   8.084  0.0928  0.1715  0.1552
   30A      O1P  921   3.376   3.147   8.006  0.1305  0.2881 -0.0235
   30A      O2P  922   3.592   3.286   8.033  0.0832  0.3807  0.3228
   30A      O5'  923   3.376   3.375   8.101  0.1029  0.2044 -0.0477
   30A      C5'  924   3.243   3.369   8.148  0.2685 -0.1169  0.3869
   30A     H5'1  925   3.238   3.296   8.230  1.2091  1.6097  2.0717
   30A     H5'2  926   3.168   3.335   8.077 -1.4544  3.5345  0.2501
   30A      C4'  927   3.201   3.508   8.193  0.5013  0.0639  0.0489
   30A      H4'  928   3.096   3.507   8.222  0.4606  0.3124 -0.0893
   30A      O4'  929   3.280   3.564   8.296 -0.1333  0.3857  0.3664
   30A      C1'  930   3.290   3.705   8.299 -0.2139  0.3956  0.1615
   30A      H1'  931   3.244   3.740   8.391  2.0038  1.9798  0.7368
   30A       N9  932   3.432   3.745   8.293  0.0089 -0.3911 -0.0251
   30A       C8  933   3.535   3.666   8.249  0.0769 -0.3438  0.0485
   30A       H8  934   3.523   3.564   8.214  1.6544 -0.4855 -0.1499
   30A       N7  935   3.651   3.723   8.260 -0.0609 -0.1059  0.2793
   30A       C5  936   3.620   3.851   8.304  0.1851 -0.0527  0.3040
   30A       C6  937   3.696   3.965   8.336 -0.0547  0.3903 -0.6435
   30A       N6  938   3.827   3.985   8.321  0.1697 -0.4767  0.0350
   30A      H61  939   3.891   3.910   8.299  0.3504 -0.0299 -1.0021
   30A      H62  940   3.854   4.083   8.316 -0.1226 -0.4520 -2.7704
   30A       N1  941   3.635   4.076   8.379 -0.2657 -0.0721  0.2895
   30A       C2  942   3.502   4.079   8.384 -0.2836 -0.2837 -0.0498
   30A       H2  943   3.457   4.173   8.410 -1.0954 -0.3667 -1.0711
   30A       N3  944   3.418   3.981   8.357 -0.0339 -0.2742 -0.9015
   30A       C4  945   3.485   3.868   8.324  0.1666 -0.6363  0.6817
   30A      C3'  946   3.215   3.618   8.088  0.0765 -0.0290 -0.1049
   30A      H3'  947   3.312   3.611   8.038  0.6230  1.5134  0.6821
   30A      C2'  948   3.215   3.745   8.172  0.3519  0.0896 -0.2830
   30A     H2'1  949   3.260   3.828   8.118  0.0699  1.3511  1.3267
   30A      O2'  950   3.087   3.782   8.219  0.2952 -0.2939 -0.1256
   30A     HO'2  951   3.013   3.762   8.160  0.2691  0.3546 -0.3226
   30A      O3'  952   3.109   3.613   7.995 -0.0672  0.0702  0.0530
   31G        P  953   3.126   3.676   7.848 -0.0958  0.0676  0.0483
   31G      O1P  954   3.007   3.648   7.765 -0.4304  0.0980  0.5101
   31G      O2P  955   3.256   3.634   7.792 -0.3718 -0.5191 -0.1514
   31G      O5'  956   3.142   3.836   7.862 -0.5503  0.0856  0.4116
   31G      C5'  957   3.031   3.915   7.897 -0.4576  0.6107 -0.4500
   31G     H5'1  958   2.983   3.869   7.983  0.9822  0.3851  0.2528
   31G     H5'2  959   2.954   3.920   7.820  1.3711 -1.9697 -2.6287
   31G      C4'  960   3.056   4.059   7.942  0.0531  0.2663  0.3854
   31G      H4'  961   2.962   4.100   7.976 -1.0757 -1.4288 -0.5408
   31G      O4'  962   3.144   4.077   8.051  0.5701 -0.1623  0.0497
   31G      C1'  963   3.229   4.188   8.034  0.2206  0.0971 -0.0345
   31G      H1'  964   3.214   4.260   8.114  3.4085  1.9080 -0.8641
   31G       N9  965   3.371   4.146   8.034  0.0701 -0.4242 -0.3274
   31G       C8  966   3.424   4.021   8.016 -0.1581 -0.5208 -0.3197
   31G       H8  967   3.366   3.930   8.002 -0.9370 -0.3330  1.3609
   31G       N7  968   3.553   4.017   8.031 -0.2194 -0.4750  0.2311
   31G       C5  969   3.589   4.150   8.053 -0.5373 -0.3920  0.2432
   31G       C6  970   3.713   4.217   8.070 -0.7558  0.1007 -0.0966
   31G       O6  971   3.826   4.168   8.076 -0.9145 -0.2027  0.4825
   31G       N1  972   3.706   4.355   8.075 -0.5741  0.0953  0.2566
   31G       H1  973   3.788   4.408   8.103 -2.5002  1.5145  4.0411
   31G       C2  974   3.585   4.422   8.086 -0.5852  0.0254  0.5632
   31G       N2  975   3.587   4.556   8.086 -0.1833  0.0361 -0.9949
   31G      H21  976   3.670   4.604   8.118  0.7508 -2.8600  1.3356
   31G      H22  977   3.493   4.592   8.074 -1.8384 -2.7555  1.9334
   31G       N3  978   3.467   4.365   8.063 -0.4241 -0.0587 -0.0763
   31G       C4  979   3.478   4.230   8.053 -0.3101 -0.0786  0.3172
   31G      C3'  980   3.119   4.142   7.831 -0.5619  0.2467  0.0180
   31G      H3'  981   3.180   4.074   7.771  0.3508  0.2966  0.8557
   31G      C2'  982   3.187   4.257   7.905 -0.0691 -0.0248 -0.0046
   31G     H2'1  983   3.267   4.285   7.837  0.7121 -3.1050 -0.4870
   31G      O2'  984   3.091   4.356   7.937  0.4956  0.5110  0.0383
   31G     HO'2  985   3.015   4.313   7.897  0.5283  0.6336 -0.1558
   31G      O3'  986   3.032   4.199   7.735 -0.1964 -0.2117 -0.5945
   32A        P  987   3.084   4.246   7.590 -0.2087  0.0357 -0.5188
   32A      O1P  988   2.966   4.298   7.517 -0.3518 -0.1547 -0.4263
   32A      O2P  989   3.152   4.127   7.533  0.2307  0.3660 -0.6870
   32A      O5'  990   3.200   4.356   7.609 -0.2547 -0.0208  0.1218
   32A      C5'  991   3.162   4.489   7.638  0.2257  0.2575 -0.4981
   32A     H5'1  992   3.099   4.479   7.727 -0.6286 -0.8727 -1.1931
   32A     H5'2  993   3.106   4.528   7.552  0.6216 -1.4315 -1.5721
   32A      C4'  994   3.270   4.592   7.667 -0.1050  0.3465  0.4412
   32A      H4'  995   3.232   4.692   7.686  4.9049  2.1396  2.8108
   32A      O4'  996   3.352   4.556   7.776  0.1705  0.5067  0.2887
   32A      C1'  997   3.483   4.603   7.751  0.3200 -0.0984 -0.0701
   32A      H1'  998   3.519   4.663   7.834  2.1887 -2.1494  0.7150
   32A       N9  999   3.574   4.488   7.733  0.0582 -0.3483  0.1804
   32A       C8 1000   3.552   4.354   7.718 -0.4123 -0.3950  1.1752
   32A       H8 1001   3.457   4.313   7.686  0.8567 -1.6031 -1.3113
   32A       N7 1002   3.659   4.280   7.732  0.0412  0.0117 -0.0111
   32A       C5 1003   3.762   4.372   7.746  0.0337  0.0313 -0.0879
   32A       C6 1004   3.899   4.363   7.773  0.0214  0.0945 -0.0086
   32A       N6 1005   3.967   4.248   7.779  0.0545  0.1553  1.0080
   32A      H61 1006   3.924   4.157   7.765 -0.1013  0.3700  0.0433
   32A      H62 1007   4.066   4.253   7.798  0.2523  1.2062 -0.2048
   32A       N1 1008   3.975   4.473   7.788  0.1384  0.0561 -0.3215
   32A       C2 1009   3.911   4.588   7.772 -0.8824 -0.3434  0.7212
   32A       H2 1010   3.976   4.674   7.782 -0.5814 -0.2850 -1.3713
   32A       N3 1011   3.783   4.613   7.748 -0.7049  0.5082  0.6297
   32A       C4 1012   3.710   4.499   7.746  0.0419  0.0348  0.0327
   32A      C3' 1013   3.361   4.612   7.546 -0.2689  0.3178  0.3122
   32A      H3' 1014   3.390   4.515   7.506  1.0758 -0.0811  2.0959
   32A      C2' 1015   3.475   4.681   7.621  0.2157 -0.0812 -0.0538
   32A     H2'1 1016   3.568   4.667   7.565 -0.1098 -1.2183 -0.3357
   32A      O2' 1017   3.458   4.818   7.652  0.2373 -0.2168  0.5531
   32A     HO'2 1018   3.536   4.874   7.658 -1.7978  2.8796 -0.1370
   32A      O3' 1019   3.298   4.695   7.451 -0.4775 -0.7362 -0.4833
   33U        P 1020   3.354   4.689   7.300  0.1701 -0.3529 -0.2629
   33U      O1P 1021   3.273   4.776   7.212  0.4221  0.0289 -0.1203
   33U      O2P 1022   3.363   4.546   7.262  0.0568 -0.2804 -0.5656
   33U      O5' 1023   3.499   4.754   7.321 -0.2502  0.3617  0.5095
   33U      C5' 1024   3.522   4.892   7.342  0.0138  0.4292 -0.1951
   33U     H5'1 1025   3.459   4.920   7.426  0.0985  1.0222 -0.3300
   33U     H5'2 1026   3.484   4.944   7.254  0.8381 -0.3741 -1.0596
   33U      C4' 1027   3.669   4.924   7.367  0.0547  0.2616 -0.2160
   33U      H4' 1028   3.677   5.028   7.399  1.3950  0.2614 -0.4854
   33U      O4' 1029   3.718   4.833   7.463 -0.0445  0.4171 -0.0171
   33U      C1' 1030   3.852   4.802   7.431 -0.2753 -0.0729 -0.5210
   33U      H1' 1031   3.908   4.838   7.517 -1.0930 -2.3188  1.0345
   33U       N1 1032   3.871   4.656   7.420  0.3006 -0.0018 -0.4525
   33U       C6 1033   3.770   4.573   7.384  0.0642 -0.0166  0.2291
   33U       H6 1034   3.676   4.618   7.352  0.4640  2.9064  2.7378
   33U       C5 1035   3.781   4.439   7.392 -0.0060 -0.0829 -0.6492
   33U       H5 1036   3.705   4.368   7.363  0.1945 -0.7516  0.4349
   33U       C4 1037   3.904   4.375   7.429 -0.1125 -0.0458 -0.2296
   33U       O4 1038   3.920   4.253   7.441 -0.7643 -0.1622 -0.5527
   33U       N3 1039   4.003   4.465   7.468 -0.0821 -0.1130 -0.1491
   33U       H3 1040   4.086   4.429   7.512 -0.1858  0.8112  0.8332
   33U       C2 1041   3.992   4.603   7.462  0.0948 -0.0910  0.0365
   33U       O2 1042   4.089   4.675   7.485  0.2763 -0.1711 -0.4687
   33U      C3' 1043   3.754   4.895   7.244  0.4151  0.6061 -0.0530
   33U      H3' 1044   3.731   4.797   7.201  1.9143  1.2962 -2.6382
   33U      C2' 1045   3.892   4.882   7.307  0.4147  0.1772 -0.1388
   33U     H2'1 1046   3.949   4.811   7.246 -1.6632 -2.2743  0.6084
   33U      O2' 1047   3.957   5.004   7.337  0.2859  0.1939  0.0731
   33U     HO'2 1048   3.942   5.056   7.257  2.4464  0.4018 -0.2577
   33U      O3' 1049   3.746   4.994   7.144  0.0458  0.6454  0.0140
   34G        P 1050   3.791   4.976   6.990  0.0524 -0.3522  0.1284
   34G      O1P 1051   3.792   5.105   6.918 -0.0003 -0.5300 -0.1921
   34G      O2P 1052   3.723   4.860   6.929 -0.1317 -0.3956  0.4103
   34G      O5' 1053   3.946   4.934   7.000  0.2546  0.3700  0.0355
   34G      C5' 1054   4.049   5.029   7.021  0.3500  0.3382 -0.2709
   34G     H5'1 1055   4.025   5.089   7.109  0.3577 -0.8237  0.5475
   34G     H5'2 1056   4.062   5.101   6.941  1.0235  0.4878 -0.0290
   34G      C4' 1057   4.188   4.977   7.057 -0.0455 -0.2966  0.3692
   34G      H4' 1058   4.246   5.064   7.085 -0.0568 -0.1526 -0.0530
   34G      O4' 1059   4.186   4.885   7.164 -0.0415 -0.4747  0.2177
   34G      C1' 1060   4.284   4.784   7.156  0.3497 -0.0634 -0.2281
   34G      H1' 1061   4.350   4.798   7.241 -0.3707  0.2063  0.2957
   34G       N9 1062   4.228   4.648   7.165 -0.5283  0.3019 -0.0627
   34G       C8 1063   4.098   4.611   7.141 -0.5488  0.0255  0.4621
   34G       H8 1064   4.035   4.688   7.098 -0.2029 -0.1448 -0.3600
   34G       N7 1065   4.078   4.484   7.160 -0.0022 -0.1758 -0.2575
   34G       C5 1066   4.202   4.435   7.197  0.0614 -0.2176 -0.5265
   34G       C6 1067   4.242   4.306   7.240  0.0804 -0.1396 -0.3109
   34G       O6 1068   4.182   4.199   7.236  0.5284 -0.4311  0.4328
   34G       N1 1069   4.376   4.297   7.276 -0.0802 -0.1415  0.2970
   34G       H1 1070   4.420   4.211   7.305 -0.7384  0.1383  2.2929
   34G       C2 1071   4.464   4.403   7.267 -0.1327 -0.1132  0.1051
   34G       N2 1072   4.595   4.384   7.291 -0.0428  0.3912  0.0419
   34G      H21 1073   4.629   4.289   7.298 -1.8585 -0.4229 -1.2286
   34G      H22 1074   4.659   4.461   7.280 -0.4680  1.0040  1.5614
   34G       N3 1075   4.425   4.528   7.237 -0.4814 -0.3146 -0.2772
   34G       C4 1076   4.298   4.533   7.192 -0.4466  0.2918 -0.3174
   34G      C3' 1077   4.255   4.892   6.949 -0.0363  0.3218 -0.1180
   34G      H3' 1078   4.184   4.817   6.913 -1.2665  1.2640  0.2584
   34G      C2' 1079   4.361   4.816   7.028  0.1983  0.6136 -0.1535
   34G     H2'1 1080   4.414   4.731   6.985 -0.2066  0.1580  0.2378
   34G      O2' 1081   4.459   4.910   7.067  0.5038  0.3840 -0.3662
   34G     HO'2 1082   4.463   4.982   7.003  2.1587  0.5434 -0.1337
   34G      O3' 1083   4.300   4.972   6.842 -0.1820  0.5112 -0.0383
   35C        P 1084   4.322   4.913   6.694  0.1178  0.1845  0.1346
   35C      O1P 1085   4.356   5.024   6.602 -0.1555  0.3280  0.2051
   35C      O2P 1086   4.209   4.825   6.657  0.1343 -0.0773  0.6897
   35C      O5' 1087   4.450   4.816   6.711  0.3200  0.4520  0.1432
   35C      C5' 1088   4.578   4.862   6.748  0.3639  0.5080 -0.0741
   35C     H5'1 1089   4.585   4.923   6.838 -0.2478  3.3697 -1.8581
   35C     H5'2 1090   4.620   4.931   6.675 -1.6948  2.6761  0.6514
   35C      C4' 1091   4.658   4.734   6.772 -0.6761 -0.1776 -0.1583
   35C      H4' 1092   4.762   4.766   6.787 -0.5812 -0.9981  1.0871
   35C      O4' 1093   4.620   4.669   6.891 -0.2791 -0.0037  0.0665
   35C      C1' 1094   4.650   4.531   6.883 -0.0053  0.0679 -0.1677
   35C      H1' 1095   4.710   4.505   6.970  0.9892  0.1897 -0.8030
   35C       N1 1096   4.532   4.442   6.885  0.1110 -0.0742  0.2617
   35C       C6 1097   4.405   4.482   6.855  0.1203 -0.0717  0.2259
   35C       H6 1098   4.390   4.586   6.830 -1.3991  0.0996  1.7079
   35C       C5 1099   4.304   4.394   6.870 -0.1660  0.1264 -0.5094
   35C       H5 1100   4.200   4.415   6.853 -0.8322 -2.5999 -0.1959
   35C       C4 1101   4.331   4.263   6.923 -0.2400  0.3316  0.0382
   35C       N4 1102   4.233   4.177   6.954  0.3291 -0.2057  0.3595
   35C      H41 1103   4.136   4.205   6.966  0.5759  0.1228  1.7743
   35C      H42 1104   4.266   4.094   7.001 -1.1203  0.1666  2.1543
   35C       N3 1105   4.456   4.225   6.950 -0.3216  0.1023  0.0985
   35C       C2 1106   4.557   4.314   6.931 -0.1480  0.0626  0.7974
   35C       O2 1107   4.669   4.267   6.951  0.0499 -0.1922 -0.7832
   35C      C3' 1108   4.666   4.622   6.669 -0.3827 -0.4900  0.2012
   35C      H3' 1109   4.564   4.596   6.638 -0.3148  0.0344 -0.4818
   35C      C2' 1110   4.718   4.503   6.749 -0.1851 -0.6186 -0.1170
   35C     H2'1 1111   4.687   4.411   6.700  0.3478 -0.3576 -0.9512
   35C      O2' 1112   4.857   4.501   6.775 -0.0640 -0.0617 -0.7061
   35C     HO'2 1113   4.885   4.409   6.774 -3.0400 -1.1841  2.1306
   35C      O3' 1114   4.756   4.660   6.568 -0.5900 -0.1702  0.1355
   36C        P 1115   4.751   4.594   6.421 -0.1172 -0.1346  0.1007
   36C      O1P 1116   4.850   4.659   6.333 -0.0387 -0.0577  0.2453
   36C      O2P 1117   4.608   4.600   6.382 -0.0147 -0.1026 -0.2746
   36C      O5' 1118   4.795   4.440   6.440  0.0442 -0.0715  0.2398
   36C      C5' 1119   4.930   4.405   6.462  0.1139  0.1368  0.1498
   36C     H5'1 1120   4.972   4.456   6.548  2.9577  1.2922 -1.8054
   36C     H5'2 1121   4.993   4.422   6.375 -0.3246 -1.8702 -0.6310
   36C      C4' 1122   4.937   4.255   6.490 -0.0279  0.1390  0.2017
   36C      H4' 1123   5.042   4.232   6.507  0.9063  1.4941 -2.9479
   36C      O4' 1124   4.857   4.224   6.602  0.2003  0.3257  0.4149
   36C      C1' 1125   4.807   4.093   6.595  0.0716  0.3585  0.7130
   36C      H1' 1126   4.845   4.034   6.679 -1.5045  1.3743  2.2127
   36C       N1 1127   4.660   4.095   6.603  0.0524  0.2307  0.3952
   36C       C6 1128   4.586   4.197   6.551 -0.0237 -0.1885 -0.3405
   36C       H6 1129   4.631   4.284   6.506  0.0157 -0.2890 -0.4946
   36C       C5 1130   4.453   4.200   6.573  0.1226  0.7326  0.4965
   36C       H5 1131   4.389   4.283   6.545  0.9732  0.8638 -1.1602
   36C       C4 1132   4.394   4.082   6.630  0.3317  0.2528 -0.2692
   36C       N4 1133   4.261   4.074   6.641  0.3605 -0.1614 -0.2145
   36C      H41 1134   4.200   4.153   6.627  0.3098 -0.6436 -3.1703
   36C      H42 1135   4.232   3.989   6.687  0.4345  0.3163  0.7424
   36C       N3 1136   4.467   3.975   6.666  0.1844  0.2090 -0.1025
   36C       C2 1137   4.602   3.983   6.660  0.2142  0.2349  0.5662
   36C       O2 1138   4.674   3.891   6.697  0.1216 -0.0404  0.0603
   36C      C3' 1139   4.894   4.156   6.382 -0.3121 -0.0246  0.4628
   36C      H3' 1140   4.803   4.192   6.335 -0.8178 -0.6192  0.9697
   36C      C2' 1141   4.858   4.033   6.464  0.1506  0.1032  0.8605
   36C     H2'1 1142   4.786   3.968   6.415 -0.9042  0.2330  2.1785
   36C      O2' 1143   4.974   3.968   6.510  0.3429  0.2097  0.5258
   36C     HO'2 1144   4.955   3.874   6.502 -0.7751  0.5381 -1.1465
   36C      O3' 1145   4.999   4.140   6.288 -0.5628 -0.0316  0.1812
   37C        P 1146   4.968   4.077   6.144  0.1051 -0.2003  0.1092
   37C      O1P 1147   5.096   4.072   6.070  0.1075 -0.8361  0.1471
   37C      O2P 1148   4.866   4.167   6.085  0.2573 -0.1436 -0.0677
   37C      O5' 1149   4.905   3.929   6.160 -0.0007 -0.2291 -0.5402
   37C      C5' 1150   4.987   3.821   6.196 -0.4914 -0.3546  0.2286
   37C     H5'1 1151   5.056   3.857   6.273 -1.2778  1.8489 -0.0369
   37C     H5'2 1152   5.046   3.800   6.106  0.7989 -0.2707  1.0223
   37C      C4' 1153   4.923   3.692   6.246 -0.1806 -0.4182  0.4647
   37C      H4' 1154   4.995   3.627   6.296 -2.6052 -1.7942  2.3823
   37C      O4' 1155   4.826   3.724   6.343 -0.2312  0.0744  0.2544
   37C      C1' 1156   4.721   3.631   6.337 -0.0471 -0.1413  0.3465
   37C      H1' 1157   4.729   3.565   6.423 -0.7126 -0.0853  0.4543
   37C       N1 1158   4.593   3.703   6.329 -0.1155 -0.2190  0.7189
   37C       C6 1159   4.586   3.835   6.294 -0.1422 -0.4232 -0.0788
   37C       H6 1160   4.670   3.882   6.246 -0.3846  1.1839  0.9867
   37C       C5 1161   4.469   3.902   6.307  0.3400  0.3915  0.0923
   37C       H5 1162   4.461   4.006   6.277  0.0705 -0.3491 -2.6498
   37C       C4 1163   4.359   3.834   6.368  0.4502  0.0914 -0.0453
   37C       N4 1164   4.243   3.892   6.402  0.2734 -0.5141  0.3960
   37C      H41 1165   4.242   3.992   6.389  0.4354 -0.6455 -0.6638
   37C      H42 1166   4.178   3.835   6.455 -0.5944 -1.9569 -2.0436
   37C       N3 1167   4.365   3.703   6.398 -0.2902  0.0369 -0.1052
   37C       C2 1168   4.481   3.636   6.376 -0.3652 -0.1889  0.1794
   37C       O2 1169   4.487   3.520   6.414  0.5275 -0.2080  0.0178
   37C      C3' 1170   4.837   3.627   6.138 -0.0070 -0.3115  0.2611
   37C      H3' 1171   4.777   3.705   6.091 -0.6766 -0.3016  1.1161
   37C      C2' 1172   4.747   3.536   6.220 -0.5650  0.0593  0.0641
   37C     H2'1 1173   4.655   3.505   6.170 -0.4786  1.6897 -1.1767
   37C      O2' 1174   4.810   3.419   6.268  0.0162  0.4537  0.2656
   37C     HO'2 1175   4.899   3.419   6.232 -0.8899  0.9803 -2.1807
   37C      O3' 1176   4.904   3.559   6.034 -0.3351 -0.2935  0.0381
   38U        P 1177   4.825   3.533   5.896  0.1849 -0.2085 -0.2776
   38U      O1P 1178   4.914   3.469   5.796 -0.0538 -0.2564 -0.4611
   38U      O2P 1179   4.777   3.668   5.858  0.2059 -0.1070  0.0510
   38U      O5' 1180   4.695   3.443   5.927  0.1755 -0.0076  0.2793
   38U      C5' 1181   4.699   3.303   5.944  0.2652 -0.0018  0.3043
   38U     H5'1 1182   4.765   3.284   6.029  2.2743  0.2780 -1.1196
   38U     H5'2 1183   4.746   3.255   5.858 -1.4655 -0.8751 -0.1863
   38U      C4' 1184   4.560   3.247   5.969  0.2350  0.0330  0.2148
   38U      H4' 1185   4.573   3.142   5.997 -1.7416 -0.2390  0.3013
   38U      O4' 1186   4.494   3.308   6.078 -0.0301 -0.6781  0.4627
   38U      C1' 1187   4.356   3.312   6.053  0.0402 -0.2306  0.1136
   38U      H1' 1188   4.300   3.262   6.133  1.2259  0.2104  1.2456
   38U       N1 1189   4.293   3.445   6.045 -0.1555 -0.3123  0.2548
   38U       C6 1190   4.364   3.555   6.007 -0.0862 -0.2259  0.6265
   38U       H6 1191   4.465   3.540   5.972  0.0840 -0.9820  1.4162
   38U       C5 1192   4.318   3.680   6.028 -0.3772 -0.0839 -0.7327
   38U       H5 1193   4.377   3.766   6.000 -3.0742  2.1900  0.0914
   38U       C4 1194   4.186   3.705   6.080  0.0474 -0.1854  0.4384
   38U       O4 1195   4.131   3.815   6.081  0.1065 -0.1519  0.1955
   38U       N3 1196   4.116   3.589   6.110 -0.1226 -0.1343  0.2443
   38U       H3 1197   4.022   3.600   6.146  0.9380 -0.1813  3.3165
   38U       C2 1198   4.166   3.460   6.097 -0.3279 -0.1705 -0.2040
   38U       O2 1199   4.091   3.365   6.121  0.0866 -0.3336  0.4517
   38U      C3' 1200   4.461   3.245   5.853 -0.0637 -0.4898  0.4721
   38U      H3' 1201   4.467   3.348   5.817  0.7688 -0.1742  1.4525
   38U      C2' 1202   4.328   3.232   5.926 -0.2144 -0.3254  0.2275
   38U     H2'1 1203   4.244   3.272   5.868 -0.4466 -0.0750  0.7272
   38U      O2' 1204   4.313   3.096   5.959 -0.0283 -0.3410  0.2459
   38U     HO'2 1205   4.296   3.050   5.877  1.3165 -1.1687  0.4002
   38U      O3' 1206   4.481   3.146   5.755  0.0091  0.1319 -0.1547
   39U        P 1207   4.412   3.154   5.610 -0.2000  0.2087 -0.0514
   39U      O1P 1208   4.444   3.039   5.523 -0.2373  0.2038 -0.0588
   39U      O2P 1209   4.444   3.291   5.566 -0.4168  0.0626 -0.6813
   39U      O5' 1210   4.255   3.150   5.645 -0.1579  0.4100  0.1615
   39U      C5' 1211   4.180   3.031   5.638  0.3553  0.0840  0.1892
   39U     H5'1 1212   4.218   2.951   5.702  0.4200 -1.5860 -1.8492
   39U     H5'2 1213   4.188   2.986   5.539 -0.0488  0.2291  0.0892
   39U      C4' 1214   4.036   3.048   5.686  0.1471  0.1041 -0.4313
   39U      H4' 1215   3.987   2.950   5.691  1.0115 -0.4105 -1.5806
   39U      O4' 1216   4.029   3.121   5.806 -0.4570  0.1813 -0.5099
   39U      C1' 1217   3.907   3.192   5.808 -0.3859  0.2972  0.0782
   39U      H1' 1218   3.842   3.170   5.892 -1.6216 -0.0375 -0.9273
   39U       N1 1219   3.926   3.338   5.819  0.2845  0.2117  0.0907
   39U       C6 1220   4.032   3.398   5.758  0.1193  0.4013 -0.0071
   39U       H6 1221   4.115   3.341   5.719  1.6387  1.2835  1.7890
   39U       C5 1222   4.036   3.532   5.774  0.4995  0.3477  0.3561
   39U       H5 1223   4.124   3.584   5.738  2.3319 -1.9237  1.3580
   39U       C4 1224   3.934   3.612   5.837 -0.2063 -0.0577 -0.2597
   39U       O4 1225   3.933   3.734   5.852 -0.3158 -0.1357  0.4091
   39U       N3 1226   3.823   3.544   5.885 -0.3196  0.0349 -0.3917
   39U       H3 1227   3.741   3.602   5.890  1.1360  2.2387 -1.0442
   39U       C2 1228   3.816   3.406   5.868  0.0474 -0.0185 -0.1216
   39U       O2 1229   3.708   3.353   5.895  0.1765 -0.0075  0.4263
   39U      C3' 1230   3.952   3.123   5.584 -0.0603  0.5686  0.0764
   39U      H3' 1231   4.006   3.213   5.553  0.7537  0.4005  0.9852
   39U      C2' 1232   3.836   3.147   5.680 -0.1951  0.1613  0.0187
   39U     H2'1 1233   3.768   3.225   5.646 -2.1011 -2.1193 -1.7191
   39U      O2' 1234   3.763   3.029   5.702  0.7801 -0.4621 -0.0524
   39U     HO'2 1235   3.760   2.972   5.624  0.9715 -1.5230  0.6904
   39U      O3' 1236   3.907   3.052   5.471  0.0676  0.0957  0.3233
   40C        P 1237   3.850   3.132   5.344 -0.0677 -0.0821  0.2710
   40C      O1P 1238   3.824   3.037   5.233 -0.2967 -0.0122  0.2629
   40C      O2P 1239   3.936   3.250   5.319 -0.1603 -0.0351  0.1717
   40C      O5' 1240   3.707   3.188   5.392 -0.1451 -0.0605  0.0167
   40C      C5' 1241   3.592   3.105   5.398  0.1726 -0.4962  0.1233
   40C     H5'1 1242   3.598   3.033   5.479 -1.2360  0.1504  0.8447
   40C     H5'2 1243   3.564   3.059   5.303 -0.6152  0.1254  0.0464
   40C      C4' 1244   3.467   3.185   5.433  0.2621 -0.3237  0.0525
   40C      H4' 1245   3.392   3.106   5.430 -1.1385  0.9528  0.1851
   40C      O4' 1246   3.474   3.239   5.563  0.6568  0.2110 -0.1875
   40C      C1' 1247   3.408   3.363   5.567  0.5019  0.1242 -0.0483
   40C      H1' 1248   3.335   3.365   5.649  0.5018  0.8795 -0.0597
   40C       N1 1249   3.496   3.482   5.574  0.1657  0.3560  0.3695
   40C       C6 1250   3.631   3.468   5.558  0.0968  0.2904 -0.2062
   40C       H6 1251   3.677   3.372   5.542  1.3377  0.8806 -0.2831
   40C       C5 1252   3.720   3.568   5.569  0.5320 -0.0536 -0.5693
   40C       H5 1253   3.827   3.552   5.567  0.8532  1.8296 -0.9189
   40C       C4 1254   3.664   3.699   5.589  0.0060 -0.2766 -0.5611
   40C       N4 1255   3.744   3.806   5.593  0.3895 -0.5708 -0.1723
   40C      H41 1256   3.837   3.802   5.553  0.5464  0.1745  0.0927
   40C      H42 1257   3.717   3.896   5.630  0.6175 -0.7773  0.5186
   40C       N3 1258   3.533   3.716   5.605  0.1284  0.2939 -0.1326
   40C       C2 1259   3.449   3.610   5.594  0.0264  0.3522  0.0771
   40C       O2 1260   3.330   3.636   5.614 -0.1914 -0.3582 -0.2594
   40C      C3' 1261   3.415   3.290   5.335  0.1390 -0.2954  0.1469
   40C      H3' 1262   3.496   3.356   5.304  0.7362  0.6606  3.3458
   40C      C2' 1263   3.330   3.366   5.436  0.0887 -0.3947  0.1802
   40C     H2'1 1264   3.321   3.468   5.399  1.7765 -0.4684 -0.5732
   40C      O2' 1265   3.202   3.312   5.460 -0.0376 -0.0710  0.2402
   40C     HO'2 1266   3.185   3.248   5.391 -0.7421  0.1866  0.1708
   40C      O3' 1267   3.347   3.234   5.225  0.4820 -0.0712 -0.1826
   41C        P 1268   3.309   3.315   5.091 -0.0768 -0.3025 -0.1667
   41C      O1P 1269   3.223   3.228   5.008 -0.4531  0.0162 -0.1160
   41C      O2P 1270   3.439   3.350   5.031  0.3485 -0.0494  0.8833
   41C      O5' 1271   3.229   3.451   5.124 -0.2183 -0.3935 -0.1356
   41C      C5' 1272   3.091   3.454   5.152 -0.2507  0.1216 -0.3450
   41C     H5'1 1273   3.076   3.386   5.236 -1.0273 -0.8533 -1.2498
   41C     H5'2 1274   3.038   3.413   5.066  0.3781 -2.3935  0.3940
   41C      C4' 1275   3.045   3.593   5.195 -0.0095  0.1171 -0.0663
   41C      H4' 1276   2.940   3.593   5.223 -0.2436 -1.4355 -0.8425
   41C      O4' 1277   3.118   3.634   5.308 -0.1265 -0.0924  0.0847
   41C      C1' 1278   3.134   3.774   5.305 -0.3945 -0.0620  0.0009
   41C      H1' 1279   3.091   3.813   5.397 -0.4619 -0.6529  0.2236
   41C       N1 1280   3.277   3.812   5.307 -0.4078 -0.0099 -0.0379
   41C       C6 1281   3.371   3.730   5.252 -0.2648  0.5443 -0.6246
   41C       H6 1282   3.340   3.636   5.210  0.7005  0.1131 -0.4005
   41C       C5 1283   3.503   3.760   5.253 -0.2197  0.3558  0.5444
   41C       H5 1284   3.583   3.701   5.210  1.1495  0.5885  2.6602
   41C       C4 1285   3.537   3.886   5.310 -0.1054  0.3673  0.4506
   41C       N4 1286   3.665   3.927   5.310 -0.0240  0.1129  0.2935
   41C      H41 1287   3.738   3.863   5.282  0.0353 -0.2334  1.1897
   41C      H42 1288   3.685   4.019   5.345 -0.9646  0.4749 -0.0901
   41C       N3 1289   3.445   3.978   5.345 -0.5411  0.2150 -0.2716
   41C       C2 1290   3.315   3.940   5.342 -0.4871  0.0052 -0.0073
   41C       O2 1291   3.234   4.028   5.372 -0.3607  0.0716  0.1398
   41C      C3' 1292   3.067   3.700   5.088 -0.1137  0.0748 -0.1296
   41C      H3' 1293   3.165   3.694   5.041 -0.9488 -2.5207 -1.7731
   41C      C2' 1294   3.054   3.819   5.183 -0.2920 -0.0097 -0.0482
   41C     H2'1 1295   3.102   3.907   5.141  0.5586 -0.8768 -0.9622
   41C      O2' 1296   2.926   3.857   5.229 -0.1197  0.4285  0.0670
   41C     HO'2 1297   2.869   3.846   5.152 -0.3170 -2.6126  0.5445
   41C      O3' 1298   2.973   3.700   4.982 -0.1587  0.1009 -0.0901
   42G        P 1299   3.004   3.765   4.838 -0.2493 -0.1257 -0.2111
   42G      O1P 1300   2.887   3.739   4.751 -0.4551 -0.1286  0.0656
   42G      O2P 1301   3.133   3.708   4.792 -0.2058 -0.3424  0.1741
   42G      O5' 1302   3.020   3.923   4.859  0.7007 -0.1536 -0.6707
   42G      C5' 1303   2.900   3.989   4.894  1.0204  0.1418 -0.1187
   42G     H5'1 1304   2.873   3.940   4.987 -2.0053  1.4598 -0.1745
   42G     H5'2 1305   2.829   3.984   4.811  0.1253  1.9505  0.4896
   42G      C4' 1306   2.921   4.136   4.931 -0.1475  0.2012  0.3473
   42G      H4' 1307   2.828   4.186   4.954  0.1918  0.5619  0.9652
   42G      O4' 1308   3.012   4.134   5.039  0.1809  0.4641  0.0777
   42G      C1' 1309   3.101   4.244   5.035  0.2743  0.3884  0.0867
   42G      H1' 1310   3.090   4.310   5.120  1.2716  0.7363 -0.0410
   42G       N9 1311   3.240   4.196   5.024  0.0612 -0.0495 -0.7811
   42G       C8 1312   3.286   4.067   5.012  0.1576 -0.1270  0.3204
   42G       H8 1313   3.227   3.981   4.985 -0.6614  0.2359  0.8933
   42G       N7 1314   3.415   4.060   5.025  0.2194 -0.0521 -0.2022
   42G       C5 1315   3.461   4.188   5.052  0.1931 -0.0048 -0.3892
   42G       C6 1316   3.587   4.247   5.082  0.0331  0.2507 -0.2200
   42G       O6 1317   3.692   4.184   5.097  0.0635  0.3168 -0.1591
   42G       N1 1318   3.587   4.382   5.113 -0.3873  0.1274  0.3379
   42G       H1 1319   3.673   4.428   5.139  0.1503  0.4964 -1.8657
   42G       C2 1320   3.465   4.448   5.107 -0.4342 -0.0428 -1.0393
   42G       N2 1321   3.480   4.576   5.144  0.2706 -0.5280  0.4512
   42G      H21 1322   3.573   4.609   5.163  0.0217  1.6154 -1.6201
   42G      H22 1323   3.400   4.633   5.166  0.8515  0.6347 -0.3530
   42G       N3 1324   3.342   4.402   5.084 -0.5360 -0.2024 -0.2160
   42G       C4 1325   3.351   4.270   5.053 -0.0702 -0.3595  0.5736
   42G      C3' 1326   2.995   4.219   4.827 -0.4357  0.1518  0.1037
   42G      H3' 1327   3.073   4.164   4.774 -0.1080  1.0099 -0.3277
   42G      C2' 1328   3.060   4.327   4.913  0.3644 -0.0440 -0.2408
   42G     H2'1 1329   3.147   4.377   4.873  0.0811  0.7339  0.1078
   42G      O2' 1330   2.956   4.416   4.947  0.4113  0.0239 -0.2790
   42G     HO'2 1331   2.905   4.432   4.867  0.2783  2.1855  0.1669
   42G      O3' 1332   2.905   4.275   4.733 -0.2228  0.8290  0.3002
   43U        P 1333   2.950   4.325   4.587 -0.3444  0.0617 -0.0031
   43U      O1P 1334   2.829   4.369   4.515  0.1637  0.2596 -0.7538
   43U      O2P 1335   3.034   4.222   4.521  0.1863  0.1247  0.5629
   43U      O5' 1336   3.043   4.455   4.606  0.3949 -0.4030 -0.4094
   43U      C5' 1337   2.996   4.582   4.645  0.8781 -0.3561  0.0480
   43U     H5'1 1338   2.940   4.575   4.738 -0.8673 -0.0338 -0.9336
   43U     H5'2 1339   2.935   4.635   4.572  0.3920  0.2484  0.8813
   43U      C4' 1340   3.117   4.671   4.669 -0.0003  0.7112  0.6266
   43U      H4' 1341   3.089   4.771   4.702 -0.7910  0.8113 -0.2856
   43U      O4' 1342   3.198   4.609   4.767  0.1259 -0.2651 -0.0743
   43U      C1' 1343   3.332   4.649   4.749  0.0805 -0.1654 -0.1955
   43U      H1' 1344   3.373   4.720   4.821  2.0724  0.0672 -1.4616
   43U       N1 1345   3.425   4.535   4.752  0.3122  0.0232 -0.1669
   43U       C6 1346   3.388   4.411   4.709 -0.1089 -0.1709  0.7241
   43U       H6 1347   3.285   4.397   4.678  0.4535 -0.6214 -1.0736
   43U       C5 1348   3.477   4.309   4.700 -0.0306 -0.0649  0.2524
   43U       H5 1349   3.431   4.214   4.680 -1.3079  0.7579 -0.9160
   43U       C4 1350   3.614   4.331   4.739  0.1058 -0.1400 -0.1856
   43U       O4 1351   3.702   4.245   4.741  0.0893 -0.1519  0.1265
   43U       N3 1352   3.642   4.457   4.790  0.0261  0.0698 -0.6609
   43U       H3 1353   3.738   4.472   4.814  0.0877 -2.5527  1.0863
   43U       C2 1354   3.553   4.563   4.798  0.0690  0.0267  0.5216
   43U       O2 1355   3.594   4.673   4.834  0.0617  0.1476  0.1673
   43U      C3' 1356   3.213   4.679   4.550 -0.3687  0.4561  0.3097
   43U      H3' 1357   3.223   4.581   4.504 -0.8338  0.1481  0.8532
   43U      C2' 1358   3.341   4.726   4.618 -0.0302  0.0761 -0.0633
   43U     H2'1 1359   3.428   4.685   4.565 -0.3388  0.2835 -0.7467
   43U      O2' 1360   3.348   4.863   4.650  0.1993 -0.0654  0.5016
   43U     HO'2 1361   3.297   4.906   4.581 -0.7115 -0.0883  1.1428
   43U      O3' 1362   3.156   4.765   4.454 -0.5932 -0.3677 -0.3047
   44A        P 1363   3.213   4.779   4.304  0.2770 -0.1260  0.0441
   44A      O1P 1364   3.134   4.892   4.250 -0.0321 -0.2224  0.2948
   44A      O2P 1365   3.212   4.649   4.233  0.5449 -0.1758  0.1287
   44A      O5' 1366   3.368   4.823   4.314  0.2657  0.0153 -0.3994
   44A      C5' 1367   3.410   4.954   4.342  0.1316 -0.1352  0.5214
   44A     H5'1 1368   3.350   4.992   4.425 -0.4818 -3.1580  1.5924
   44A     H5'2 1369   3.379   5.015   4.257  1.6000 -0.9955 -0.6833
   44A      C4' 1370   3.558   4.965   4.374  0.1077  0.3857  0.4616
   44A      H4' 1371   3.578   5.057   4.431 -0.5544  0.2768  0.8799
   44A      O4' 1372   3.602   4.869   4.468  0.1977 -0.1846 -0.1553
   44A      C1' 1373   3.736   4.829   4.456  0.3108  0.0274  0.3421
   44A      H1' 1374   3.799   4.869   4.535 -2.3171 -0.6945  2.9674
   44A       N9 1375   3.751   4.682   4.448  0.0232  0.0122  0.0575
   44A       C8 1376   3.660   4.583   4.420 -0.0530  0.0883  0.0372
   44A       H8 1377   3.557   4.596   4.390  0.0572 -1.9323 -1.3539
   44A       N7 1378   3.708   4.465   4.445  0.0960 -0.0037 -0.6720
   44A       C5 1379   3.840   4.491   4.482 -0.2583  0.3932  0.3483
   44A       C6 1380   3.948   4.407   4.513 -0.6899 -0.1954  0.2618
   44A       N6 1381   3.952   4.275   4.536 -0.4907 -0.1421  0.5436
   44A      H61 1382   3.878   4.211   4.509  0.4569 -2.1561  2.4164
   44A      H62 1383   4.042   4.246   4.570 -0.3663  0.7232  0.9627
   44A       N1 1384   4.067   4.461   4.542 -0.4804 -0.3171 -0.3547
   44A       C2 1385   4.081   4.593   4.531 -0.3281 -0.3233 -0.2449
   44A       H2 1386   4.179   4.628   4.558 -1.1302  1.0800  1.0215
   44A       N3 1387   3.991   4.684   4.499  0.0074  0.2514  0.4425
   44A       C4 1388   3.873   4.624   4.470  0.1786  0.2358 -0.2144
   44A      C3' 1389   3.643   4.927   4.253 -0.2570  0.5183  0.1635
   44A      H3' 1390   3.603   4.834   4.215 -0.5330  1.1492 -1.1562
   44A      C2' 1391   3.775   4.897   4.324 -0.3564 -0.0034  0.1271
   44A     H2'1 1392   3.834   4.827   4.266  0.6640 -0.4625  1.6540
   44A      O2' 1393   3.838   5.020   4.351 -0.3730 -0.0592  0.4331
   44A     HO'2 1394   3.834   5.063   4.265  0.2143 -0.0674  0.4003
   44A      O3' 1395   3.655   5.015   4.144  0.0931  0.3531  0.0690
   45G        P 1396   3.699   4.958   4.000  0.0638  0.1061  0.1574
   45G      O1P 1397   3.676   5.065   3.899 -0.7277 -0.4232 -0.2323
   45G      O2P 1398   3.650   4.820   3.980  0.6685 -0.1390  0.3738
   45G      O5' 1399   3.856   4.937   4.027  0.0125 -0.2248  0.1987
   45G      C5' 1400   3.942   5.048   4.035 -0.3009  0.0134  0.2922
   45G     H5'1 1401   3.904   5.116   4.112 -0.0910 -1.6442  1.9441
   45G     H5'2 1402   3.941   5.098   3.938 -1.9396  3.8342  2.0624
   45G      C4' 1403   4.087   5.008   4.061 -0.2216  0.1787  0.0997
   45G      H4' 1404   4.147   5.099   4.060 -0.0786  0.2197  3.5613
   45G      O4' 1405   4.107   4.947   4.186 -0.4386 -0.3760 -0.1331
   45G      C1' 1406   4.198   4.841   4.170  0.3361  0.2400  0.0716
   45G      H1' 1407   4.274   4.849   4.247  1.1963  0.9521 -0.8288
   45G       N9 1408   4.136   4.707   4.178  0.4656  0.1830  0.1297
   45G       C8 1409   4.004   4.674   4.155  0.4043  0.2167  0.4332
   45G       H8 1410   3.934   4.745   4.114  0.4926 -0.4549 -0.9331
   45G       N7 1411   3.972   4.548   4.165 -0.2406  0.2872 -0.5648
   45G       C5 1412   4.096   4.493   4.198 -0.4272  0.1812 -0.0343
   45G       C6 1413   4.127   4.357   4.226 -0.1193  0.2505 -0.0429
   45G       O6 1414   4.053   4.260   4.240  0.1224  0.1232  0.3923
   45G       N1 1415   4.264   4.339   4.238 -0.2554 -0.6444  0.1941
   45G       H1 1416   4.300   4.250   4.270 -1.9507 -0.6223  2.4009
   45G       C2 1417   4.359   4.439   4.233 -0.2447 -0.6511  0.2648
   45G       N2 1418   4.487   4.401   4.244 -0.0560 -0.0366  0.2330
   45G      H21 1419   4.507   4.304   4.260 -0.5892 -0.4271 -1.3047
   45G      H22 1420   4.556   4.474   4.254 -0.2521  0.0186  1.3266
   45G       N3 1421   4.328   4.569   4.227  0.0087 -0.6350 -0.8446
   45G       C4 1422   4.196   4.586   4.201 -0.1780 -0.0956  0.3832
   45G      C3' 1423   4.147   4.916   3.954 -0.4651  0.1196  0.0134
   45G      H3' 1424   4.075   4.839   3.927 -1.9332  1.0196  1.1797
   45G      C2' 1425   4.262   4.852   4.031 -0.2682  0.2001 -0.2128
   45G     H2'1 1426   4.290   4.754   3.992  1.0584  0.3264  0.3807
   45G      O2' 1427   4.369   4.943   4.042  0.0026 -0.1524  0.0934
   45G     HO'2 1428   4.390   4.961   3.950 -2.1011  0.4569 -0.3334
   45G      O3' 1429   4.191   4.981   3.837 -0.8727 -0.0985 -0.2652
   46A        P 1430   4.211   4.891   3.705  0.1644 -0.3443  0.0479
   46A      O1P 1431   4.258   4.988   3.603 -0.5848 -0.2668 -0.2251
   46A      O2P 1432   4.089   4.812   3.679 -0.1829  0.3688 -0.5184
   46A      O5' 1433   4.330   4.786   3.731  0.4656 -0.1217 -0.4089
   46A      C5' 1434   4.464   4.830   3.726  0.4693 -0.1670 -0.6720
   46A     H5'1 1435   4.477   4.907   3.801 -1.1892 -0.2038 -0.3136
   46A     H5'2 1436   4.485   4.862   3.624  1.1237  0.1605 -0.4381
   46A      C4' 1437   4.560   4.723   3.778  0.4967  0.0704 -0.2314
   46A      H4' 1438   4.663   4.759   3.789 -0.2191  1.7552  1.5281
   46A      O4' 1439   4.520   4.668   3.901 -0.0360 -0.3568 -0.5905
   46A      C1' 1440   4.536   4.528   3.893  0.1666 -0.3717  0.0423
   46A      H1' 1441   4.587   4.491   3.982  0.3950  0.7292  0.3769
   46A       N9 1442   4.411   4.450   3.899 -0.1170  0.1022  0.2838
   46A       C8 1443   4.284   4.491   3.865 -0.1153  0.3025  0.5156
   46A       H8 1444   4.257   4.593   3.842 -0.0076  0.0994 -0.5558
   46A       N7 1445   4.194   4.403   3.898  0.3362 -0.3786 -0.0410
   46A       C5 1446   4.267   4.288   3.925  0.5240 -0.1459  0.4367
   46A       C6 1447   4.236   4.154   3.950  0.4148 -0.2138 -0.0573
   46A       N6 1448   4.111   4.106   3.964  0.2293  0.2336 -0.1814
   46A      H61 1449   4.027   4.162   3.969  0.3165  0.4160 -0.6593
   46A      H62 1450   4.102   4.012   3.997 -1.2569  0.9826  1.7545
   46A       N1 1451   4.327   4.066   3.993  0.3844 -0.1470  0.1472
   46A       C2 1452   4.452   4.110   3.993  0.2201  0.3210  0.1397
   46A       H2 1453   4.521   4.032   4.020 -1.2836 -0.8258  0.8045
   46A       N3 1454   4.500   4.230   3.961  0.6189 -0.0058 -0.4967
   46A       C4 1455   4.401   4.318   3.936  0.4703  0.0944  0.4266
   46A      C3' 1456   4.563   4.613   3.672  0.1884 -0.0920 -0.0735
   46A      H3' 1457   4.461   4.592   3.640 -0.4180  2.1884  0.1938
   46A      C2' 1458   4.612   4.502   3.763 -0.0896 -0.2622 -0.1306
   46A     H2'1 1459   4.589   4.408   3.712 -0.2117 -1.0695  1.3363
   46A      O2' 1460   4.747   4.523   3.798 -0.2548  0.3374  0.1458
   46A     HO'2 1461   4.798   4.550   3.722  0.4593 -1.7627 -0.1766
   46A      O3' 1462   4.656   4.650   3.572 -0.0061 -0.0692 -0.2477
   47G        P 1463   4.635   4.585   3.427  0.0572 -0.2275 -0.1863
   47G      O1P 1464   4.731   4.650   3.336  0.1527 -0.5538 -0.3222
   47G      O2P 1465   4.492   4.594   3.388 -0.1595  0.1014  0.6761
   47G      O5' 1466   4.666   4.429   3.453 -0.0093 -0.2640 -0.3176
   47G      C5' 1467   4.799   4.383   3.454 -0.0472 -0.3721 -0.2644
   47G     H5'1 1468   4.839   4.444   3.535 -4.7263  0.7535  1.5480
   47G     H5'2 1469   4.844   4.405   3.357 -1.0960  1.7856 -0.3095
   47G      C4' 1470   4.818   4.237   3.496 -0.1910 -0.3156 -0.0038
   47G      H4' 1471   4.922   4.212   3.512 -0.2497 -1.3993 -1.1792
   47G      O4' 1472   4.751   4.202   3.615 -0.4308  0.0975 -0.0136
   47G      C1' 1473   4.710   4.068   3.606  0.2437 -0.1516  0.4933
   47G      H1' 1474   4.749   4.006   3.688 -1.1929 -2.6988 -0.6143
   47G       N9 1475   4.563   4.064   3.619  0.1202 -0.0136 -0.7940
   47G       C8 1476   4.472   4.165   3.603  0.2097  0.0602 -0.8389
   47G       H8 1477   4.494   4.268   3.581 -1.2595  0.9084  1.2828
   47G       N7 1478   4.347   4.137   3.628  0.4266  0.2438  0.5530
   47G       C5 1479   4.356   4.002   3.661  0.2733  0.1349  0.1605
   47G       C6 1480   4.246   3.914   3.676  0.0061  0.3874 -0.2803
   47G       O6 1481   4.126   3.934   3.690 -0.0230  0.3311 -0.4509
   47G       N1 1482   4.288   3.781   3.680  0.2787  0.4862  0.5715
   47G       H1 1483   4.219   3.710   3.700  0.2274 -0.1174 -1.4422
   47G       C2 1484   4.422   3.750   3.679  0.2521  0.3701  0.6357
   47G       N2 1485   4.445   3.620   3.701  0.4288  0.3152  0.1451
   47G      H21 1486   4.371   3.552   3.708  1.1628 -0.7314 -1.5535
   47G      H22 1487   4.544   3.599   3.706 -0.0841 -2.8241 -0.8104
   47G       N3 1488   4.529   3.830   3.666  0.3203  0.2086  0.1543
   47G       C4 1489   4.486   3.959   3.663  0.2951  0.1962  0.0279
   47G      C3' 1490   4.765   4.142   3.388 -0.1009 -0.3154 -0.0481
   47G      H3' 1491   4.668   4.176   3.351  0.0385 -2.6753 -2.8719
   47G      C2' 1492   4.746   4.014   3.468  0.6923 -0.0535  0.5726
   47G     H2'1 1493   4.677   3.945   3.420  1.6735 -1.4545  1.0720
   47G      O2' 1494   4.869   3.949   3.496  0.6315 -0.2969  0.2774
   47G     HO'2 1495   4.847   3.866   3.539  1.6288 -2.0898 -2.3649
   47G      O3' 1496   4.850   4.123   3.278  0.0133  0.4820 -0.1085
   48U        P 1497   4.798   4.080   3.131  0.1568 -0.0331 -0.0124
   48U      O1P 1498   4.914   4.074   3.039 -0.4596 -0.2211 -0.7872
   48U      O2P 1499   4.687   4.165   3.084 -0.0187 -0.2827 -0.0524
   48U      O5' 1500   4.738   3.932   3.144 -0.2631  0.1206 -0.2108
   48U      C5' 1501   4.819   3.823   3.182 -0.1573  0.1281 -0.4099
   48U     H5'1 1502   4.871   3.840   3.276  1.6743 -1.4812 -1.0599
   48U     H5'2 1503   4.892   3.796   3.106 -0.8737 -3.2279 -0.0953
   48U      C4' 1504   4.743   3.695   3.217  0.1493  0.0705  0.0521
   48U      H4' 1505   4.818   3.617   3.228  0.2885 -0.0131 -1.3432
   48U      O4' 1506   4.673   3.710   3.338 -0.2378  0.1856 -0.1855
   48U      C1' 1507   4.556   3.631   3.333 -0.0947 -0.0413  0.0359
   48U      H1' 1508   4.551   3.564   3.419 -2.2343  2.1655  1.7936
   48U       N1 1509   4.438   3.719   3.330 -0.0909 -0.0561 -0.4821
   48U       C6 1510   4.444   3.853   3.303  0.3927 -0.0018 -0.1052
   48U       H6 1511   4.534   3.901   3.267  0.0324  0.7698 -0.0028
   48U       C5 1512   4.334   3.930   3.319  0.2288 -0.1942 -0.3080
   48U       H5 1513   4.343   4.036   3.300  1.6792 -0.0560  0.9774
   48U       C4 1514   4.203   3.875   3.349  0.1649 -0.1342 -0.4797
   48U       O4 1515   4.098   3.937   3.361  0.3287 -0.0588  0.7291
   48U       N3 1516   4.203   3.737   3.361  0.0845 -0.1271 -0.3992
   48U       H3 1517   4.123   3.686   3.396  2.4092 -3.4785  0.6145
   48U       C2 1518   4.318   3.658   3.360  0.0232 -0.2160 -0.3555
   48U       O2 1519   4.309   3.543   3.403 -0.7875 -0.0726 -0.1170
   48U      C3' 1520   4.647   3.645   3.110  0.0474 -0.6386  0.4654
   48U      H3' 1521   4.592   3.730   3.069 -0.3690 -0.1323  2.0183
   48U      C2' 1522   4.550   3.565   3.196 -0.5708 -0.2364  0.1503
   48U     H2'1 1523   4.452   3.570   3.147 -0.5533 -0.2724  0.1121
   48U      O2' 1524   4.584   3.429   3.205  0.2557 -0.0086  0.5253
   48U     HO'2 1525   4.671   3.417   3.166  0.1767 -1.4872  0.7418
   48U      O3' 1526   4.715   3.564   3.017  0.3184  0.4278 -0.2951
   49C        P 1527   4.654   3.549   2.869 -0.0865  0.2611 -0.1111
   49C      O1P 1528   4.752   3.481   2.782  0.1366  0.2198  0.1718
   49C      O2P 1529   4.588   3.671   2.818 -0.2930  0.1638 -0.0779
   49C      O5' 1530   4.532   3.450   2.908 -0.0611  0.1953 -0.1986
   49C      C5' 1531   4.520   3.310   2.896 -0.3083  0.1706  0.2958
   49C     H5'1 1532   4.597   3.265   2.958 -0.9310 -1.6867 -0.2177
   49C     H5'2 1533   4.528   3.281   2.791  0.3262  1.9836 -0.2016
   49C      C4' 1534   4.387   3.259   2.950 -0.5195  0.0395 -0.3408
   49C      H4' 1535   4.398   3.153   2.973  0.9302  0.4867  1.2422
   49C      O4' 1536   4.343   3.332   3.062 -0.3567  0.5429 -0.6022
   49C      C1' 1537   4.202   3.325   3.067 -0.3297 -0.0611 -0.5463
   49C      H1' 1538   4.178   3.271   3.158  0.3734  0.7507  0.1437
   49C       N1 1539   4.132   3.454   3.078 -0.1683 -0.0234  0.0848
   49C       C6 1540   4.196   3.563   3.026 -0.1683  0.0372  0.2121
   49C       H6 1541   4.288   3.557   2.970 -1.0018 -0.9720 -1.1248
   49C       C5 1542   4.146   3.687   3.043  0.0154  0.0734  0.5040
   49C       H5 1543   4.193   3.773   2.998 -1.5867  0.7131 -0.0236
   49C       C4 1544   4.016   3.698   3.103 -0.1792 -0.7698  0.2502
   49C       N4 1545   3.955   3.817   3.113 -0.2215 -0.7166 -0.6227
   49C      H41 1546   4.010   3.898   3.085  0.0465 -0.7566 -0.2193
   49C      H42 1547   3.870   3.827   3.166  0.9248  2.0431  0.9037
   49C       N3 1548   3.952   3.590   3.150 -0.9601 -0.3329  0.1945
   49C       C2 1549   4.007   3.467   3.137 -0.2178  0.0191 -0.0301
   49C       O2 1550   3.944   3.367   3.170  0.0747 -0.3521 -0.5743
   49C      C3' 1551   4.266   3.262   2.858 -0.3484  0.6850 -0.5478
   49C      H3' 1552   4.256   3.365   2.824  1.6798  0.7444 -1.0460
   49C      C2' 1553   4.150   3.236   2.954 -0.3379  0.1167 -0.6831
   49C     H2'1 1554   4.054   3.275   2.919 -0.1707 -0.0780 -1.3588
   49C      O2' 1555   4.139   3.105   3.005  0.0920  0.3143 -0.0595
   49C     HO'2 1556   4.049   3.092   3.035  0.8930 -1.0142  1.8906
   49C      O3' 1557   4.282   3.175   2.748  0.2008  0.1021 -0.0101
   50G        P 1558   4.220   3.202   2.602 -0.0670  0.1840  0.1180
   50G      O1P 1559   4.268   3.093   2.514 -0.3721  0.6720 -0.6585
   50G      O2P 1560   4.248   3.341   2.559  0.5678  0.0662  0.1419
   50G      O5' 1561   4.063   3.184   2.633 -0.0617  0.3799  0.2631
   50G      C5' 1562   4.020   3.056   2.675 -0.2996  0.3531 -0.0514
   50G     H5'1 1563   4.071   3.031   2.768 -0.9425  0.0151  0.2150
   50G     H5'2 1564   4.044   2.978   2.603  0.7816 -0.0551  0.7256
   50G      C4' 1565   3.870   3.068   2.699 -0.2301 -0.5282  0.9025
   50G      H4' 1566   3.827   2.970   2.719 -0.6525 -0.7420 -0.8624
   50G      O4' 1567   3.852   3.160   2.804 -0.3335 -0.4311  0.8000
   50G      C1' 1568   3.731   3.231   2.795 -0.0523 -0.0278  0.0412
   50G      H1' 1569   3.666   3.199   2.877 -0.1482 -1.2478 -0.4952
   50G       N9 1570   3.755   3.375   2.817  0.1158 -0.0545  0.0330
   50G       C8 1571   3.866   3.451   2.790  0.1331  0.0299  0.3308
   50G       H8 1572   3.957   3.415   2.743  0.6577  2.5681 -0.7794
   50G       N7 1573   3.847   3.578   2.812  0.4043  0.2130 -0.4686
   50G       C5 1574   3.722   3.583   2.871  0.8187 -0.3016  0.4843
   50G       C6 1575   3.654   3.692   2.932  0.0514 -0.4700 -0.0374
   50G       O6 1576   3.680   3.812   2.935  0.4748 -0.5615  0.2394
   50G       N1 1577   3.519   3.669   2.955  0.0505 -0.0477  0.4139
   50G       H1 1578   3.462   3.745   2.989 -0.6244  0.2906 -1.3810
   50G       C2 1579   3.469   3.541   2.949 -0.1621  0.0491  0.1225
   50G       N2 1580   3.337   3.538   2.975 -0.3394 -0.2722 -0.7664
   50G      H21 1581   3.286   3.624   2.990 -1.2920 -0.8810 -0.4494
   50G      H22 1582   3.278   3.457   2.965  0.2651 -1.3059  2.7903
   50G       N3 1583   3.531   3.434   2.897  0.0428  0.1490  0.1628
   50G       C4 1584   3.661   3.460   2.869 -0.1985  0.1951 -0.9322
   50G      C3' 1585   3.783   3.129   2.589  0.4541 -0.4267  0.4111
   50G      H3' 1586   3.831   3.208   2.532  0.6113  0.0127  1.1437
   50G      C2' 1587   3.668   3.200   2.659  0.4379  0.2078 -0.2410
   50G     H2'1 1588   3.638   3.298   2.623  0.7786  1.1403  1.8693
   50G      O2' 1589   3.563   3.113   2.695  0.7413 -0.0115  0.1271
   50G     HO'2 1590   3.487   3.128   2.638  0.7595  0.7301  0.2890
   50G      O3' 1591   3.744   3.029   2.498  0.1843  0.0769 -0.0321
   50G      H3T 1592   3.663   3.049   2.450 -0.0095  1.2238  0.7531
   51SOL     OW 1593   3.831   3.655   1.462 -0.4029  0.5724  0.5452
   51SOL    HW1 1594   3.747   3.609   1.461  0.9565 -2.1247  1.3826
   51SOL    HW2 1595   3.835   3.694   1.550  0.3305 -1.6438  1.5517
   52SOL     OW 1596   0.961   2.576   9.523 -0.5904 -0.1309  0.9490
   52SOL    HW1 1597   0.951   2.654   9.467  1.7032  0.0679  0.7133
   52SOL    HW2 1598   0.999   2.510   9.465 -1.2564 -1.0008  1.4855
   53SOL     OW 1599   0.736   3.212   6.545 -0.2640 -0.7906 -0.2334
   53SOL    HW1 1600   0.710   3.161   6.622  2.1494 -2.6409 -0.5362
   53SOL    HW2 1601   0.827   3.236   6.561 -0.3520  0.6530 -1.5946
   54SOL     OW 1602   0.269   3.166   7.291  0.1022 -0.2947 -0.0129
   54SOL    HW1 1603   0.235   3.107   7.223 -0.6944 -0.9811  0.9544
   54SOL    HW2 1604   0.197   3.175   7.353  0.9477 -0.0100  0.9466
   55SOL     OW 1605   1.182   6.517   8.457 -0.3240 -0.0127 -0.1751
   55SOL    HW1 1606   1.108   6.576   8.474  0.9622  1.7603 -0.3799
   55SOL    HW2 1607   1.243   6.569   8.405  1.0511 -1.4233 -0.0685
   56SOL     OW 1608   5.257   0.396   9.353  0.6661  0.2861  0.1957
   56SOL    HW1 1609   5.222   0.478   9.386 -0.9536 -0.3299  0.0831
   56SOL    HW2 1610   5.324   0.371   9.418  1.6243  1.9534 -0.0965
   57SOL     OW 1611   3.579   2.020   2.477 -0.1748  0.0345 -0.4691
   57SOL    HW1 1612   3.666   2.014   2.517  0.9464  0.1322 -2.7055
   57SOL    HW2 1613   3.518   2.026   2.551  1.5198 -2.1006  1.2329
   58SOL     OW 1614   5.798   7.415   0.903 -0.1076 -0.5646 -0.5752
   58SOL    HW1 1615   5.788   7.320   0.915  0.0980 -0.5354 -0.1514
   58SOL    HW2 1616   5.886   7.425   0.869 -0.0025 -0.5008 -0.2884
   59SOL     OW 1617   2.959   1.125   1.020  0.8682 -0.0448 -0.0447
   59SOL    HW1 1618   2.936   1.053   1.078 -0.2238  0.9735  0.8466
   59SOL    HW2 1619   2.876   1.151   0.980  1.4917 -0.2630 -1.5573
   60SOL     OW 1620   6.507   0.382   0.687 -0.7538  0.3629  0.0897
   60SOL    HW1 1621   6.439   0.336   0.736  0.2520 -2.3350 -0.8716
   60SOL    HW2 1622   6.589   0.344   0.719 -0.0301 -1.8299 -3.7061
   61SOL     OW 1623   5.061   4.526  11.361 -0.2174 -0.0891 -0.0386
   61SOL    HW1 1624   5.095   4.613  11.342  0.0457 -0.4345 -1.2935
   61SOL    HW2 1625   5.138   4.470  11.370 -0.3800 -0.1755  0.8695
   62SOL     OW 1626   6.375   3.464   2.625 -0.1413 -0.6462 -0.2490
   62SOL    HW1 1627   6.360   3.554   2.652  1.0941 -0.8622  1.3603
   62SOL    HW2 1628   6.429   3.471   2.546 -1.3385 -0.0015 -1.0399
   63SOL     OW 1629   4.330   2.176   7.855  0.5606 -0.3983  0.3136
   63SOL    HW1 1630   4.280   2.163   7.935 -0.2596  0.0432 -0.1211
   63SOL    HW2 1631   4.385   2.097   7.849 -0.8973 -1.4450  0.2048
   64SOL     OW 1632   4.992   1.925   6.784 -0.6528  0.1763  0.0816
   64SOL    HW1 1633   5.068   1.969   6.747 -0.5214  0.2482  0.4333
   64SOL    HW2 1634   5.007   1.926   6.879 -0.8538 -0.2437  0.1200
   65SOL     OW 1635   1.962   0.287   6.215  0.0277  0.0087 -0.5632
   65SOL    HW1 1636   1.969   0.203   6.170  3.8462  0.7287 -1.6976
   65SOL    HW2 1637   1.938   0.265   6.305  0.2802 -2.2282 -0.9880
   66SOL     OW 1638   1.114   6.932   0.296 -0.3919 -0.1398 -0.2606
   66SOL    HW1 1639   1.184   6.866   0.298  1.0586  1.3306  1.3432
   66SOL    HW2 1640   1.140   6.991   0.225 -1.5193 -1.0672 -1.4846
   67SOL     OW 1641   5.085   0.164   9.356  0.0251  0.5632 -0.0968
   67SOL    HW1 1642   5.155   0.102   9.376  1.3419  2.3706  1.1709
   67SOL    HW2 1643   5.128   0.249   9.351 -2.1405  1.8358  1.3327
   68SOL     OW 1644   1.282   2.589  11.022  0.1969  0.0897 -0.4796
   68SOL    HW1 1645   1.195   2.586  11.060  0.8654  1.2347  1.2404
   68SOL    HW2 1646   1.271   2.637  10.939 -0.9105 -0.4584 -0.6559
   69SOL     OW 1647   4.773   7.913   1.815 -0.4537  0.0856  0.0676
   69SOL    HW1 1648   4.771   7.817   1.816  0.8703  0.0359 -0.2996
   69SOL    HW2 1649   4.825   7.937   1.892 -2.0812  0.5966  1.0696
   70SOL     OW 1650   0.068   4.170   1.815  0.3799 -0.4732  1.1004
   70SOL    HW1 1651   0.160   4.143   1.819  0.4417 -0.3768  0.4140
   70SOL    HW2 1652   0.023   4.096   1.774  0.2223 -0.3367  1.0273
   71SOL     OW 1653   2.744   5.364   5.688 -0.0431  0.5849 -0.1656
   71SOL    HW1 1654   2.742   5.311   5.608  0.9724 -1.6374  1.1583
   71SOL    HW2 1655   2.665   5.338   5.735  1.0375 -0.7363  1.0153
   72SOL     OW 1656   0.906   3.591   4.224 -0.2241  0.4443  0.5092
   72SOL    HW1 1657   0.933   3.515   4.274  2.4004  1.1359  0.2545
   72SOL    HW2 1658   0.840   3.557   4.163  0.3380 -1.4559  0.8954
   73SOL     OW 1659   3.632   7.190  10.049 -0.4941 -0.3117  0.3707
   73SOL    HW1 1660   3.717   7.186  10.005 -1.4214 -0.3274 -1.5387
   73SOL    HW2 1661   3.627   7.279  10.084 -0.8040  0.6710 -1.9959
   74SOL     OW 1662   4.271   1.292   2.386 -0.2728 -1.0807 -0.8048
   74SOL    HW1 1663   4.256   1.269   2.294 -2.7279  1.4858 -1.2002
   74SOL    HW2 1664   4.183   1.292   2.425  0.3640  0.7692  0.7627
   75SOL     OW 1665   6.437   3.227   2.296  0.4994 -0.0316 -0.2897
   75SOL    HW1 1666   6.488   3.215   2.216 -0.8884 -0.5815 -1.1245
   75SOL    HW2 1667   6.351   3.191   2.276  0.1929 -0.4570  1.5594
   76SOL     OW 1668   3.111   7.631   3.680 -0.0497  0.2116 -0.5574
   76SOL    HW1 1669   3.182   7.576   3.714 -0.2852  0.4450  0.3419
   76SOL    HW2 1670   3.143   7.721   3.692  0.8027  0.3198 -3.0187
   77SOL     OW 1671   3.620   4.157   6.600  0.4897  0.3129 -0.5127
   77SOL    HW1 1672   3.546   4.179   6.657  0.2804 -0.2247 -0.5776
   77SOL    HW2 1673   3.667   4.240   6.590 -0.3353  0.7524 -0.8056
   78SOL     OW 1674   7.699   4.264   4.824  0.0410  0.5680 -0.3963
   78SOL    HW1 1675   7.776   4.269   4.881 -1.2003 -1.1289  1.5884
   78SOL    HW2 1676   7.711   4.182   4.776 -1.4800 -0.9558  1.6158
   79SOL     OW 1677   5.395   1.140   2.032  0.2695 -0.0917  0.6025
   79SOL    HW1 1678   5.418   1.048   2.046 -0.5878 -0.3204  0.6153
   79SOL    HW2 1679   5.299   1.140   2.036  0.2366  0.6939 -0.0774
   80SOL     OW 1680   3.901   4.000   1.216 -0.3124 -0.0756 -0.1777
   80SOL    HW1 1681   3.956   3.933   1.174  1.4732  0.7726  0.7181
   80SOL    HW2 1682   3.939   4.083   1.189 -1.1360  0.5536  0.5205
   81SOL     OW 1683   7.882   4.598   6.880  0.1384 -0.3898 -0.7749
   81SOL    HW1 1684   7.945   4.551   6.935  0.0286  0.2779 -0.0781
   81SOL    HW2 1685   7.840   4.529   6.828  0.1550 -1.0421  0.0625
   82SOL     OW 1686   7.603   2.080   2.764 -0.1164  0.5631 -0.1621
   82SOL    HW1 1687   7.600   2.018   2.691  0.0506 -0.7422  0.8825
   82SOL    HW2 1688   7.513   2.081   2.797  0.2379 -0.5686  0.9334
   83SOL     OW 1689   2.817   4.202   6.812  0.0039  0.2542 -0.4190
   83SOL    HW1 1690   2.729   4.238   6.821  0.4357  0.9606  1.3121
   83SOL    HW2 1691   2.804   4.107   6.808 -1.0825  0.3811 -4.2000
   84SOL     OW 1692   7.702   2.366   2.786  0.3566  0.6625  0.0358
   84SOL    HW1 1693   7.701   2.459   2.763 -1.0056  0.7847  0.4639
   84SOL    HW2 1694   7.685   2.365   2.880 -0.6331 -0.0347 -0.1309
   85SOL     OW 1695   1.114   2.019   7.459  0.4542  0.0583  0.1848
   85SOL    HW1 1696   1.020   2.037   7.454  0.6416  1.4675  0.8972
   85SOL    HW2 1697   1.152   2.066   7.385  0.5146 -1.4262 -0.7633
   86SOL     OW 1698   1.247   3.554   5.130 -0.5567 -0.3368 -0.3017
   86SOL    HW1 1699   1.233   3.636   5.178  1.5930 -0.5161  0.7466
   86SOL    HW2 1700   1.275   3.492   5.197 -1.6553 -1.8069 -1.1673
   87SOL     OW 1701   6.536   5.978   4.034 -0.3652  0.1180 -0.3213
   87SOL    HW1 1702   6.510   5.889   4.060 -0.6619  0.4965  0.7106
   87SOL    HW2 1703   6.458   6.031   4.045  0.4521  1.0232  1.6639
   88SOL     OW 1704   7.769   7.327   4.190  0.2979  0.1933 -0.1704
   88SOL    HW1 1705   7.682   7.358   4.215  0.9814  0.1906  2.5071
   88SOL    HW2 1706   7.765   7.319   4.095 -1.6076  3.2689 -0.4795
   89SOL     OW 1707   7.682   0.490  12.169 -0.2400 -0.1546 -0.6981
   89SOL    HW1 1708   7.771   0.517  12.146 -0.0107 -0.6340 -0.3954
   89SOL    HW2 1709   7.631   0.507  12.090 -0.0139  0.7234 -0.6653
   90SOL     OW 1710   4.250   6.024   7.423  0.4271 -0.0628 -0.2952
   90SOL    HW1 1711   4.335   6.000   7.460  0.0088  0.4107  1.0315
   90SOL    HW2 1712   4.218   5.943   7.383  0.6660 -0.7683  0.8872
   91SOL     OW 1713   2.076   2.380   8.043  0.8421 -0.2330 -0.7003
   91SOL    HW1 1714   2.075   2.467   8.082  0.2163  0.1565 -1.5401
   91SOL    HW2 1715   2.166   2.370   8.010  0.7772  0.3046 -1.0507
   92SOL     OW 1716   3.530   3.579   2.238 -0.1155  0.2668  0.0929
   92SOL    HW1 1717   3.533   3.661   2.287 -0.9709  0.3238  0.0577
   92SOL    HW2 1718   3.503   3.513   2.303 -0.0381  0.1205 -0.0213
   93SOL     OW 1719   0.700   4.882  11.546 -0.1712 -0.2046  0.4014
   93SOL    HW1 1720   0.764   4.910  11.612  0.7690 -1.9928  0.3168
   93SOL    HW2 1721   0.709   4.786  11.544  0.4250 -0.1773 -2.8983
   94SOL     OW 1722   5.186   4.417   1.996  0.4050 -0.0252 -0.3597
   94SOL    HW1 1723   5.168   4.509   2.015  0.9299  0.0979 -0.4594
   94SOL    HW2 1724   5.268   4.418   1.947 -0.1043 -0.4671 -1.2471
   95SOL     OW 1725   2.070   3.869   2.510  0.3102 -0.3315  0.2983
   95SOL    HW1 1726   1.993   3.926   2.507  1.7039  1.6179 -0.9979
   95SOL    HW2 1727   2.115   3.894   2.591  1.0738  0.6541 -0.4177
   96SOL     OW 1728   2.375   6.283   1.728 -0.6476 -0.3515  0.2911
   96SOL    HW1 1729   2.330   6.282   1.812 -0.1474 -0.0566  0.5704
   96SOL    HW2 1730   2.384   6.191   1.704 -1.5761 -0.4024  0.1274
   97SOL     OW 1731   1.427   4.815   2.862 -0.0919 -1.0317 -0.8760
   97SOL    HW1 1732   1.401   4.843   2.774 -0.6108  1.0711 -0.1117
   97SOL    HW2 1733   1.521   4.797   2.855  0.6118  2.2542 -1.2080
   98SOL     OW 1734   6.480   6.260   5.802  0.2849  0.0914  0.2419
   98SOL    HW1 1735   6.535   6.267   5.880 -2.6313 -0.5668  2.5351
   98SOL    HW2 1736   6.432   6.343   5.800  0.7904  0.3662 -1.2767
   99SOL     OW 1737   0.541   3.597   5.272 -0.2709  0.2667 -0.5906
   99SOL    HW1 1738   0.577   3.630   5.354 -1.1642 -0.8222  0.2765
   99SOL    HW2 1739   0.520   3.675   5.221 -0.8102  1.0099  0.7259
  100SOL     OW 1740   5.912   1.030   8.190  0.4450  0.2033  0.0642
  100SOL    HW1 1741   5.963   0.988   8.121  1.6157  2.0329 -0.2337
  100SOL    HW2 1742   5.974   1.089   8.234 -0.5581 -0.0529  1.9461
  101SOL     OW 1743   7.528   1.009   2.740  0.2918 -0.1982  0.9683
  101SOL    HW1 1744   7.556   1.097   2.716  1.3174 -0.1977  2.0500
  101SOL    HW2 1745   7.589   0.951   2.695  0.5846 -0.2869  1.4675
  102SOL     OW 1746   4.902   4.682   7.120  0.6380 -0.2748 -0.3788
  102SOL    HW1 1747   4.820   4.730   7.132 -0.8030 -2.0442 -2.3150
  102SOL    HW2 1748   4.910   4.674   7.025  2.2117 -1.5354 -0.1703
  103SOL     OW 1749   5.646   6.811   1.662 -0.5506  0.4273 -0.1745
  103SOL    HW1 1750   5.681   6.736   1.711  0.7351  0.7057 -0.6134
  103SOL    HW2 1751   5.649   6.783   1.570  0.7653  1.2970 -0.4264
  104SOL     OW 1752   6.179   0.386   6.333  0.0291  0.2999  0.1571
  104SOL    HW1 1753   6.184   0.337   6.416 -1.2909  1.4858  0.9954
  104SOL    HW2 1754   6.197   0.477   6.358 -1.0678  0.7816 -0.7264
  105SOL     OW 1755   3.475   2.462   1.462  0.0539  0.4210 -0.3757
  105SOL    HW1 1756   3.450   2.551   1.439  0.1331  0.2926 -0.9867
  105SOL    HW2 1757   3.421   2.440   1.538 -0.6326  0.6688 -0.7815
  106SOL     OW 1758   6.688   3.328   0.975  0.3506  0.5347  0.0830
  106SOL    HW1 1759   6.732   3.408   0.946  4.0965 -0.3196  2.6521
  106SOL    HW2 1760   6.734   3.257   0.929 -1.5528 -0.3159 -0.6269
  107SOL     OW 1761   1.967   0.401   0.173 -0.1315  0.2472  0.3364
  107SOL    HW1 1762   1.946   0.473   0.114  2.0291 -0.6644 -1.6508
  107SOL    HW2 1763   1.886   0.349   0.176 -0.1911  0.0689 -2.2389
  108SOL     OW 1764   7.692   7.858   7.999 -0.0205  0.1835  0.2213
  108SOL    HW1 1765   7.664   7.777   7.958 -0.7797 -0.3398  1.7253
  108SOL    HW2 1766   7.675   7.925   7.933 -2.8131 -0.4006  0.2362
  109SOL     OW 1767   5.485   7.858   3.786 -0.7837  0.0868 -0.3136
  109SOL    HW1 1768   5.517   7.948   3.775 -0.6516  0.2218  1.0738
  109SOL    HW2 1769   5.564   7.804   3.785 -0.7284  0.1471  0.3761
  110SOL     OW 1770   1.367   6.521  10.323 -0.3234  0.6918  0.0578
  110SOL    HW1 1771   1.381   6.447  10.382 -1.1238  1.0227  0.6755
  110SOL    HW2 1772   1.274   6.514  10.298  0.4258 -0.6709 -2.8509
  111SOL     OW 1773   5.609   5.430   4.163  0.3977 -0.0800  0.0413
  111SOL    HW1 1774   5.538   5.482   4.201  3.0174  2.9900  1.2032
  111SOL    HW2 1775   5.655   5.394   4.238  0.8045 -0.9866 -0.6280
  112SOL     OW 1776   1.104   0.088   7.152  0.6006  0.2189  0.2971
  112SOL    HW1 1777   1.118   0.135   7.070  0.8400 -1.3084 -0.5959
  112SOL    HW2 1778   1.014   0.110   7.177 -1.2028 -2.5516 -2.7884
  113SOL     OW 1779   0.796   2.700   8.545 -0.2736 -0.0500 -0.2131
  113SOL    HW1 1780   0.781   2.727   8.635  2.8593  0.7895  0.2070
  113SOL    HW2 1781   0.735   2.752   8.493 -0.7416  0.9601  1.2940
  114SOL     OW 1782   3.077   5.486   8.991 -0.6317  0.5328  0.2329
  114SOL    HW1 1783   3.116   5.553   9.047 -0.5134 -0.4849  1.4153
  114SOL    HW2 1784   3.151   5.452   8.940 -0.5180  0.6593  0.3137
  115SOL     OW 1785   7.740   2.260   4.516  0.0493 -0.2217  0.2630
  115SOL    HW1 1786   7.707   2.331   4.571  0.0516 -1.0824  1.4092
  115SOL    HW2 1787   7.769   2.192   4.578 -0.1938 -1.3337 -0.7967
  116SOL     OW 1788   3.926   7.185   8.826 -0.0239 -0.4845  0.3236
  116SOL    HW1 1789   3.835   7.192   8.852 -0.8027  1.5093 -2.4281
  116SOL    HW2 1790   3.971   7.254   8.876 -0.2997 -0.5424  0.6527
  117SOL     OW 1791   3.612   1.220  10.372 -0.4501  0.0442  0.1008
  117SOL    HW1 1792   3.538   1.279  10.386 -1.5394 -0.9239 -1.3775
  117SOL    HW2 1793   3.684   1.262  10.418 -2.0686  0.6236  2.3098
  118SOL     OW 1794   6.736   2.076   7.899  0.2756  0.6231  0.5852
  118SOL    HW1 1795   6.685   2.054   7.977  0.4257 -0.5835  0.3717
  118SOL    HW2 1796   6.793   2.000   7.886  0.0100  0.6559 -0.9004
  119SOL     OW 1797   1.330   7.378   1.888  0.2178 -0.0388  0.1517
  119SOL    HW1 1798   1.415   7.343   1.913  1.1623  1.5622 -0.7038
  119SOL    HW2 1799   1.290   7.403   1.971  1.1932  0.5355  0.4614
  120SOL     OW 1800   2.604   3.414   5.839 -0.6088 -0.2443 -0.1684
  120SOL    HW1 1801   2.636   3.370   5.761  0.8641  0.8608 -0.2329
  120SOL    HW2 1802   2.649   3.371   5.911 -0.5423 -0.0450 -0.0884
  121SOL     OW 1803   2.709   2.381  10.389  0.4459 -0.5000  0.4333
  121SOL    HW1 1804   2.734   2.379  10.481  1.5001  3.0232  0.3889
  121SOL    HW2 1805   2.768   2.445  10.350 -2.0403  0.5344 -1.9792
  122SOL     OW 1806   4.090   1.316   3.100  0.1959 -0.8851 -0.0489
  122SOL    HW1 1807   4.155   1.308   3.031  0.1408  0.5270 -0.2960
  122SOL    HW2 1808   4.080   1.411   3.112 -0.9830 -1.0966  0.7617
  123SOL     OW 1809   1.827   2.623   5.900  0.4649 -0.0726  0.2006
  123SOL    HW1 1810   1.837   2.656   5.811  0.3457  0.2898  0.3199
  123SOL    HW2 1811   1.785   2.537   5.889 -1.3487  0.7971  0.0005
  124SOL     OW 1812   2.623   0.308   7.925  0.0160  0.2242 -0.0636
  124SOL    HW1 1813   2.609   0.243   7.993 -0.4397  1.7726  1.3827
  124SOL    HW2 1814   2.638   0.257   7.846  0.6857 -1.6416  1.2003
  125SOL     OW 1815   6.923   2.141   1.744  0.3315 -0.2130  0.6596
  125SOL    HW1 1816   6.941   2.233   1.723  3.0392 -0.7641  0.1650
  125SOL    HW2 1817   6.874   2.109   1.668  0.3017  0.5466  0.3417
  126SOL     OW 1818   7.428   4.099   9.207 -0.0566 -0.1585 -0.1271
  126SOL    HW1 1819   7.449   4.176   9.154 -0.5653 -0.0281 -0.1454
  126SOL    HW2 1820   7.512   4.071   9.243 -0.0554  1.3291  1.1274
  127SOL     OW 1821   3.263   1.235   5.262 -0.2065 -0.0121  0.2885
  127SOL    HW1 1822   3.247   1.316   5.309 -0.0069  0.0433  0.2647
  127SOL    HW2 1823   3.227   1.250   5.174 -1.1652 -0.3541  0.6208
  128SOL     OW 1824   0.079   6.780   6.415 -0.5125 -0.0355  0.3032
  128SOL    HW1 1825   0.056   6.784   6.507  0.5430  0.1822  0.5630
  128SOL    HW2 1826   0.040   6.858   6.376 -2.0769 -0.7839  0.2884
  129SOL     OW 1827   5.348   3.246   7.872  0.1056 -0.5413  0.5381
  129SOL    HW1 1828   5.306   3.331   7.863 -0.7596 -0.8422  1.5013
  129SOL    HW2 1829   5.410   3.241   7.799 -0.6577  0.4321 -0.1953
  130SOL     OW 1830   1.395   7.853   4.593 -0.5747 -0.3325  0.2293
  130SOL    HW1 1831   1.353   7.823   4.513 -0.5900  0.1840  0.0473
  130SOL    HW2 1832   1.488   7.860   4.570 -0.6189  0.0876  0.1764
  131SOL     OW 1833   6.225   6.903   8.302 -0.1333 -0.6340  0.2159
  131SOL    HW1 1834   6.220   6.857   8.219 -1.1347 -0.2661  0.0641
  131SOL    HW2 1835   6.307   6.872   8.342 -0.3088 -1.8065 -0.3068
  132SOL     OW 1836   5.716   3.918   3.336 -0.0478  0.3113  0.0318
  132SOL    HW1 1837   5.698   3.848   3.273 -1.6201  0.1226  0.6314
  132SOL    HW2 1838   5.809   3.909   3.356  0.1003 -0.6925 -0.9851
  133SOL     OW 1839   1.951   4.907   2.502  0.3100  0.5866  0.4109
  133SOL    HW1 1840   2.035   4.900   2.548  0.2938  0.9356  0.4972
  133SOL    HW2 1841   1.964   4.855   2.422  0.3404 -0.0085  0.7981
  134SOL     OW 1842   6.780   1.877   1.511  0.5914  0.1294 -0.2694
  134SOL    HW1 1843   6.720   1.884   1.437  0.4192 -1.0981 -0.2601
  134SOL    HW2 1844   6.760   1.953   1.565 -1.8594 -0.8981  0.3798
  135SOL     OW 1845   7.351   0.130   0.334 -0.1720  0.4074  0.3506
  135SOL    HW1 1846   7.442   0.138   0.306  0.0207  0.6438  1.0349
  135SOL    HW2 1847   7.329   0.217   0.367 -1.1508  0.8198 -1.2909
  136SOL     OW 1848   1.214   5.335   5.654 -0.7412 -0.1203 -0.1382
  136SOL    HW1 1849   1.142   5.274   5.669 -1.0875  0.2739 -0.1751
  136SOL    HW2 1850   1.291   5.279   5.643 -1.3837 -0.6926 -2.2748
  137SOL     OW 1851   1.245   2.004   1.783 -0.0383  0.2913 -0.2238
  137SOL    HW1 1852   1.209   1.932   1.732 -0.4125 -0.3144  0.8568
  137SOL    HW2 1853   1.185   2.077   1.767  0.0711  0.2237 -0.9450
  138SOL     OW 1854   0.775   3.250   1.826 -0.7017  0.5545 -0.7189
  138SOL    HW1 1855   0.680   3.238   1.826 -1.0097  2.5622  0.1608
  138SOL    HW2 1856   0.799   3.240   1.918 -0.2021  1.0289 -0.7989
  139SOL     OW 1857   4.381   2.057   8.531  0.2680  0.6673  0.6711
  139SOL    HW1 1858   4.447   1.989   8.539  1.0316  1.5245  2.0685
  139SOL    HW2 1859   4.300   2.017   8.561  0.3454 -0.0949 -0.0992
  140SOL     OW 1860   2.836   0.479   9.107 -0.6875 -0.0770  0.0055
  140SOL    HW1 1861   2.787   0.453   9.185  0.9317 -0.6232  0.8625
  140SOL    HW2 1862   2.784   0.444   9.034 -2.1964  0.4070  0.7891
  141SOL     OW 1863   5.984   0.717   3.417 -0.1388  0.0946 -0.0185
  141SOL    HW1 1864   6.054   0.656   3.397 -0.6714 -1.1133  1.5760
  141SOL    HW2 1865   5.953   0.690   3.504 -4.3846 -1.1561 -1.6910
  142SOL     OW 1866   6.404   6.849   9.813 -0.0625  0.4988  0.4693
  142SOL    HW1 1867   6.379   6.772   9.762 -0.3907  0.5196  0.6024
  142SOL    HW2 1868   6.416   6.918   9.748 -0.8492  0.6241  0.4528
  143SOL     OW 1869   4.333   5.670   8.982  0.0244  0.1354 -0.1488
  143SOL    HW1 1870   4.360   5.617   8.907  2.7169 -0.7361  1.2796
  143SOL    HW2 1871   4.394   5.645   9.052 -2.3641  0.8817  2.3622
  144SOL     OW 1872   7.289   7.058   2.669 -0.2786  0.3782  0.1163
  144SOL    HW1 1873   7.346   6.995   2.625  1.6652  0.3030  2.5099
  144SOL    HW2 1874   7.223   7.005   2.712 -0.0430  0.1549  0.2065
  145SOL     OW 1875   0.234   0.403   1.976  0.0200  0.3571  0.5158
  145SOL    HW1 1876   0.228   0.486   2.022  0.0844  0.0134  1.1569
  145SOL    HW2 1877   0.164   0.406   1.911  0.8319  1.4431 -0.3468
  146SOL     OW 1878   6.567   4.126   4.749  0.2517  0.3406 -0.3814
  146SOL    HW1 1879   6.526   4.212   4.750  3.4559  2.0482  2.4764
  146SOL    HW2 1880   6.598   4.114   4.659 -0.9083  1.7550 -1.0043
  147SOL     OW 1881   3.238   5.825   8.360  0.2212  0.7012  0.5099
  147SOL    HW1 1882   3.194   5.743   8.384  1.7645 -0.1725  0.4508
  147SOL    HW2 1883   3.180   5.894   8.393 -1.4445 -0.3825 -0.0132
  148SOL     OW 1884   7.020   1.580   1.671  0.2378  0.2031 -0.2293
  148SOL    HW1 1885   7.074   1.585   1.749 -0.4755 -0.8855  0.3591
  148SOL    HW2 1886   7.013   1.671   1.641 -1.8315  1.1441  2.6184
  149SOL     OW 1887   5.154   6.232  10.721  0.2419 -0.5487 -0.0580
  149SOL    HW1 1888   5.240   6.205  10.753 -0.1710 -1.1308  0.5963
  149SOL    HW2 1889   5.114   6.151  10.689 -0.4253 -0.4624  0.5171
  150SOL     OW 1890   2.627   4.654   6.447 -0.0349  0.6487  0.5693
  150SOL    HW1 1891   2.632   4.601   6.527  1.3695  0.3603  0.3061
  150SOL    HW2 1892   2.535   4.680   6.443  0.0242  1.4423  2.7778
  151SOL     OW 1893   4.259   3.113   1.931 -0.0621  0.4339  0.1109
  151SOL    HW1 1894   4.246   3.032   1.882 -0.7452  1.1877 -1.0046
  151SOL    HW2 1895   4.267   3.180   1.864  2.2326  1.1024  0.9492
  152SOL     OW 1896   2.148   7.916   1.646  0.2273 -0.0680 -0.1416
  152SOL    HW1 1897   2.126   7.998   1.690 -0.5470  0.1159 -0.8631
  152SOL    HW2 1898   2.213   7.875   1.704 -0.2599  0.4868  0.8265
  153SOL     OW 1899   6.903   6.367  11.926  1.0899 -0.3089  0.1554
  153SOL    HW1 1900   6.818   6.410  11.939  1.7339  0.6761  1.2905
  153SOL    HW2 1901   6.882   6.274  11.925  0.0281 -0.0970  0.8279
  154SOL     OW 1902   2.610   5.186   4.498 -0.2520 -0.3571  0.0695
  154SOL    HW1 1903   2.577   5.273   4.521  2.3228  0.9824 -0.8840
  154SOL    HW2 1904   2.691   5.177   4.549  0.1287 -1.6917 -0.7225
  155SOL     OW 1905   1.252   2.788   3.408  0.1118 -0.3169 -0.4194
  155SOL    HW1 1906   1.336   2.833   3.395  1.8147 -2.5003  2.0377
  155SOL    HW2 1907   1.269   2.698   3.382 -1.0355 -1.1136  1.4187
  156SOL     OW 1908   3.615   6.875   5.831 -0.0847  0.1125 -0.1399
  156SOL    HW1 1909   3.709   6.890   5.823  0.0921  1.7220  3.0131
  156SOL    HW2 1910   3.576   6.962   5.822 -0.8891 -0.0091  1.6264
  157SOL     OW 1911   4.778   2.152   2.667  0.1912 -0.6308  0.0163
  157SOL    HW1 1912   4.757   2.112   2.752  0.9107  0.7677  0.8896
  157SOL    HW2 1913   4.874   2.150   2.663  0.1331 -2.1553 -1.5293
  158SOL     OW 1914   7.599   0.267   9.466  0.1469 -0.2114 -0.0473
  158SOL    HW1 1915   7.624   0.337   9.407  2.8022 -1.6709 -0.8281
  158SOL    HW2 1916   7.575   0.194   9.409  0.3063 -0.8600  0.6949
  159SOL     OW 1917   4.765   2.766   9.945 -0.3229 -0.3875  0.1814
  159SOL    HW1 1918   4.719   2.722  10.017 -0.2206  0.2767  0.6693
  159SOL    HW2 1919   4.709   2.841   9.924 -0.3332 -0.5631 -0.4149
  160SOL     OW 1920   0.626   1.641   1.754 -0.6643 -0.3892  0.4975
  160SOL    HW1 1921   0.533   1.657   1.745 -0.5722 -0.3858 -0.4954
  160SOL    HW2 1922   0.669   1.721   1.724 -0.3456 -0.0463  1.7947
  161SOL     OW 1923   0.039   1.857   3.279 -0.5993  0.0845 -0.6484
  161SOL    HW1 1924   0.040   1.783   3.218 -0.9673 -0.8740  0.4761
  161SOL    HW2 1925   0.099   1.831   3.349 -0.5554  0.9560 -0.3533
  162SOL     OW 1926   2.023   5.480   1.913 -0.5597  0.4822 -0.1693
  162SOL    HW1 1927   2.017   5.575   1.928  1.9068  0.4158  1.9310
  162SOL    HW2 1928   1.963   5.442   1.977 -2.0023  0.5666 -1.4084
  163SOL     OW 1929   1.240   3.379   8.252  0.1611 -0.2247  0.2967
  163SOL    HW1 1930   1.270   3.443   8.317  0.1388  0.5910 -0.4692
  163SOL    HW2 1931   1.154   3.352   8.283  0.1088  0.2268  0.5651
  164SOL     OW 1932   7.570   2.268   4.249  0.4696 -0.3903  0.6264
  164SOL    HW1 1933   7.635   2.273   4.319 -0.2690  3.8048  1.2787
  164SOL    HW2 1934   7.597   2.336   4.187 -1.6226 -0.6081 -0.6061
  165SOL     OW 1935   0.080   2.535   8.010  0.1551  0.6371  0.5139
  165SOL    HW1 1936   0.108   2.622   7.983 -0.1785  0.2681 -1.1491
  165SOL    HW2 1937   0.008   2.513   7.951  0.1004 -0.6710  1.0259
  166SOL     OW 1938   2.600   3.594   7.100 -0.6912 -0.8036 -0.1624
  166SOL    HW1 1939   2.566   3.580   7.012 -0.9614 -2.5717  0.2008
  166SOL    HW2 1940   2.522   3.610   7.154 -0.8174 -2.6928  0.2720
  167SOL     OW 1941   1.328   5.275   6.748  0.1469  0.6335  0.1198
  167SOL    HW1 1942   1.323   5.255   6.841 -0.1841 -0.5322 -0.1284
  167SOL    HW2 1943   1.336   5.370   6.744  1.2681  0.6133  1.3633
  168SOL     OW 1944   2.553   7.442   5.268  0.6368 -0.3088 -0.3172
  168SOL    HW1 1945   2.508   7.386   5.331 -1.3186  1.4033 -0.0730
  168SOL    HW2 1946   2.524   7.411   5.182 -0.1062  0.0305 -0.1958
  169SOL     OW 1947   6.462   1.398   1.920 -0.3088 -0.1543  0.0924
  169SOL    HW1 1948   6.454   1.370   2.011  0.1742 -1.6681 -0.3108
  169SOL    HW2 1949   6.379   1.374   1.880  0.0115 -0.8125 -0.1932
  170SOL     OW 1950   2.615   0.362   0.065 -0.1202 -0.0207 -0.0282
  170SOL    HW1 1951   2.569   0.281   0.088 -0.8334  0.1058 -0.9240
  170SOL    HW2 1952   2.662   0.387   0.144  2.4391 -2.8000 -0.5106
  171SOL     OW 1953   3.757   7.277   2.749  0.3863  0.6508  0.1995
  171SOL    HW1 1954   3.818   7.283   2.676 -1.5135  0.7407 -1.4435
  171SOL    HW2 1955   3.813   7.280   2.827  2.5353 -0.3260 -1.2264
  172SOL     OW 1956   0.627   6.616   1.051  0.6162 -0.2343  0.5325
  172SOL    HW1 1957   0.698   6.552   1.045 -0.9535 -2.1298  1.1549
  172SOL    HW2 1958   0.562   6.575   1.108 -2.6013 -0.2421 -2.7514
  173SOL     OW 1959   3.840   0.124   1.421 -0.2736  0.1053 -0.0515
  173SOL    HW1 1960   3.753   0.162   1.436 -1.2951 -0.8562 -2.7781
  173SOL    HW2 1961   3.885   0.187   1.365 -1.0483 -1.3713 -2.5086
  174SOL     OW 1962   6.421   7.763   9.876  0.1073  0.1395  0.1636
  174SOL    HW1 1963   6.435   7.778   9.970 -0.5031 -1.7128  0.5892
  174SOL    HW2 1964   6.331   7.791   9.861  0.4974  1.3034 -0.0918
  175SOL     OW 1965   6.770   1.867   9.969  0.0424  0.2206  0.5080
  175SOL    HW1 1966   6.833   1.795   9.970 -0.3740 -0.1913 -0.8472
  175SOL    HW2 1967   6.693   1.831   9.926  0.4793  1.9683 -1.9521
  176SOL     OW 1968   7.001   2.355   8.900 -0.0087  0.1727  0.0039
  176SOL    HW1 1969   7.058   2.295   8.851  0.2214 -0.1610  0.6698
  176SOL    HW2 1970   6.919   2.356   8.851 -0.4787 -1.7243  0.6704
  177SOL     OW 1971   5.852   1.853  11.510 -0.4919 -0.6115  0.1778
  177SOL    HW1 1972   5.807   1.933  11.485 -1.5654 -1.0992  0.4793
  177SOL    HW2 1973   5.816   1.786  11.452  0.5257 -0.8532 -0.1958
  178SOL     OW 1974   7.164   5.379  10.371 -0.0146  0.3683  0.0704
  178SOL    HW1 1975   7.233   5.315  10.389  0.5049  0.5670 -1.0827
  178SOL    HW2 1976   7.204   5.464  10.389  0.5206  0.5713 -1.8641
  179SOL     OW 1977   6.594   2.815   1.319 -0.4707 -0.1073 -0.0291
  179SOL    HW1 1978   6.569   2.756   1.390 -1.3906 -0.3881 -0.5735
  179SOL    HW2 1979   6.513   2.830   1.270 -0.6082  2.7871  0.9314
  180SOL     OW 1980   2.563   5.536   1.323  0.1730  0.5628  0.0115
  180SOL    HW1 1981   2.518   5.553   1.240 -0.1426 -1.0227 -0.1667
  180SOL    HW2 1982   2.493   5.528   1.388  0.3260  0.3531  0.1524
  181SOL     OW 1983   0.783   5.715   1.271  0.0958  0.1060 -0.1284
  181SOL    HW1 1984   0.725   5.676   1.206 -0.6396  1.4500 -0.3271
  181SOL    HW2 1985   0.822   5.791   1.226 -0.8171  1.3580  1.1172
  182SOL     OW 1986   5.922   6.312   1.297 -0.2383  0.3550 -0.8876
  182SOL    HW1 1987   5.911   6.228   1.341 -1.2936  1.1834  0.5251
  182SOL    HW2 1988   5.863   6.307   1.221  0.5392 -0.5591 -1.4604
  183SOL     OW 1989   1.756   3.456   0.907  0.1231 -0.0888 -0.3849
  183SOL    HW1 1990   1.784   3.397   0.838  1.1998 -0.5931  0.4605
  183SOL    HW2 1991   1.668   3.425   0.931  0.5439 -1.1478 -0.1718
  184SOL     OW 1992   1.989   5.006  11.433 -0.2056  0.2631  0.2392
  184SOL    HW1 1993   2.009   5.037  11.344  1.6304 -1.1561  0.0988
  184SOL    HW2 1994   2.072   4.971  11.465 -1.1678 -0.5278  2.0073
  185SOL     OW 1995   6.107   2.956   9.010  0.2883 -0.1605  0.1896
  185SOL    HW1 1996   6.098   2.871   8.967  1.2420  0.8148 -2.0541
  185SOL    HW2 1997   6.074   3.019   8.947 -2.4344  1.0870  2.5989
  186SOL     OW 1998   7.580   6.919   9.941 -0.3291  0.2362 -0.1551
  186SOL    HW1 1999   7.674   6.924   9.955 -0.1568  0.3889 -1.2618
  186SOL    HW2 2000   7.571   6.893   9.849 -1.3614  0.1529 -0.0379
  187SOL     OW 2001   5.559   1.440   2.178 -0.3125 -0.4941  0.1035
  187SOL    HW1 2002   5.539   1.430   2.271 -3.4552  1.3439 -0.2171
  187SOL    HW2 2003   5.643   1.486   2.176 -0.2200 -0.5240  2.0225
  188SOL     OW 2004   1.038   1.346   6.944  0.0744  0.0279  0.4221
  188SOL    HW1 2005   1.086   1.338   7.027 -0.0935  0.3353  0.5482
  188SOL    HW2 2006   1.087   1.291   6.883  0.4111  0.0944  0.6309
  189SOL     OW 2007   4.755   0.767   8.483 -0.3838  0.1494 -0.5773
  189SOL    HW1 2008   4.812   0.710   8.431 -0.9523  0.2236 -1.3049
  189SOL    HW2 2009   4.670   0.722   8.484  0.0409 -0.7161  1.7724
  190SOL     OW 2010   2.893   3.977   4.402 -0.1971 -0.8113 -0.3230
  190SOL    HW1 2011   2.929   4.063   4.423 -0.5833 -0.6860 -0.1633
  190SOL    HW2 2012   2.960   3.915   4.431 -1.2785 -0.7277  2.6968
  191SOL     OW 2013   7.688   1.147   4.687  0.2765 -0.9933  0.0903
  191SOL    HW1 2014   7.617   1.123   4.747 -0.0205  0.6467  0.4443
  191SOL    HW2 2015   7.766   1.149   4.742 -0.2348  2.0010  0.8563
  192SOL     OW 2016   3.670   0.921  10.723 -0.2613 -0.3684  0.0496
  192SOL    HW1 2017   3.739   0.885  10.780 -1.0237  0.1058  1.2850
  192SOL    HW2 2018   3.671   1.015  10.739 -0.4342 -0.2083 -0.8030
  193SOL     OW 2019   1.648   0.437   1.822  0.0733  0.2076 -0.4545
  193SOL    HW1 2020   1.590   0.367   1.852 -0.5869 -0.6643 -3.4639
  193SOL    HW2 2021   1.736   0.399   1.826 -0.1577 -0.3924 -0.8977
  194SOL     OW 2022   3.041   5.076   2.240 -0.8573  0.4937 -0.1256
  194SOL    HW1 2023   2.954   5.064   2.202 -0.3606 -1.4425 -0.7551
  194SOL    HW2 2024   3.024   5.102   2.331 -2.2005 -2.3439  0.5517
  195SOL     OW 2025   6.032   5.510   1.855 -0.0542  0.0441 -0.0923
  195SOL    HW1 2026   6.000   5.460   1.930 -0.7011 -0.9043 -0.9731
  195SOL    HW2 2027   6.062   5.443   1.793 -1.6511  0.6683 -1.6154
  196SOL     OW 2028   1.418   7.394   4.242  0.3855 -0.2142 -0.4852
  196SOL    HW1 2029   1.414   7.489   4.230 -2.4721 -0.2836 -0.7376
  196SOL    HW2 2030   1.448   7.360   4.157  0.4863  0.4106 -0.7044
  197SOL     OW 2031   6.631   0.528   4.814 -0.5603  0.3459 -0.3217
  197SOL    HW1 2032   6.706   0.480   4.779 -0.6442  0.5751 -0.8299
  197SOL    HW2 2033   6.606   0.479   4.893  0.7718  0.8747  0.4625
  198SOL     OW 2034   4.879   0.758   7.015 -0.7507 -0.2625 -0.2406
  198SOL    HW1 2035   4.919   0.671   7.005  1.6475  0.3077  2.7619
  198SOL    HW2 2036   4.934   0.815   6.961  0.1908 -0.0474  0.9217
  199SOL     OW 2037   7.159   3.436   8.088  0.1469  0.7572 -0.3216
  199SOL    HW1 2038   7.105   3.379   8.034  0.7251  0.3845 -0.5221
  199SOL    HW2 2039   7.228   3.467   8.029  0.2252  1.1157 -0.0411
  200SOL     OW 2040   5.956   7.070   7.412 -0.0750  0.2040  0.2043
  200SOL    HW1 2041   5.947   7.052   7.319 -1.9747  0.9629  0.2130
  200SOL    HW2 2042   6.045   7.042   7.433 -0.1025 -1.3410 -1.5187
  201SOL     OW 2043   6.013   2.565   3.015 -0.4615 -0.0319 -0.7086
  201SOL    HW1 2044   5.993   2.513   3.093  1.0255  3.1399  2.0178
  201SOL    HW2 2045   5.935   2.619   3.002 -0.0813  0.6256 -0.3248
  202SOL     OW 2046   4.015   0.696   2.903  0.1180  0.0672 -0.2731
  202SOL    HW1 2047   4.109   0.683   2.902 -0.0077 -1.0599 -2.5522
  202SOL    HW2 2048   4.003   0.790   2.889  0.8908 -0.0075 -1.5103
  203SOL     OW 2049   7.538   3.744   3.587  0.1349  0.3481  0.0024
  203SOL    HW1 2050   7.485   3.824   3.588 -0.6421 -0.0450 -2.5505
  203SOL    HW2 2051   7.628   3.775   3.578 -0.1403  0.9452 -0.7415
  204SOL     OW 2052   7.430   6.166   3.404  0.4156  0.2053  0.5353
  204SOL    HW1 2053   7.403   6.080   3.434 -0.8605  0.9126  1.5432
  204SOL    HW2 2054   7.355   6.223   3.424  0.3001  1.1409 -2.1523
  205SOL     OW 2055   1.565   2.089   0.957 -0.1290 -0.0981  0.0316
  205SOL    HW1 2056   1.573   2.003   0.998 -0.2462 -0.0693  0.1157
  205SOL    HW2 2057   1.607   2.079   0.872 -0.2054 -0.2590  0.0127
  206SOL     OW 2058   6.097   2.127  12.209 -0.0479  0.0679  0.3038
  206SOL    HW1 2059   6.013   2.149  12.169  0.3142  1.0491  0.0551
  206SOL    HW2 2060   6.083   2.041  12.250 -1.1398  0.1924  0.2078
  207SOL     OW 2061   6.744   5.680   9.458 -0.2760 -0.3375 -0.6077
  207SOL    HW1 2062   6.679   5.614   9.482  0.2867 -0.4016  0.8081
  207SOL    HW2 2063   6.785   5.705   9.540  0.5545  0.7009 -1.3109
  208SOL     OW 2064   0.890   0.626  11.812 -0.3101  0.1022 -0.3954
  208SOL    HW1 2065   0.831   0.686  11.768 -0.8346 -0.2983 -0.2385
  208SOL    HW2 2066   0.839   0.589  11.883 -0.2608 -1.1739 -0.9987
  209SOL     OW 2067   7.022   4.370  10.339  0.5496 -0.7170 -0.2944
  209SOL    HW1 2068   7.046   4.436  10.404 -1.2918  0.8723 -1.1121
  209SOL    HW2 2069   6.956   4.413  10.285 -1.2966 -3.4756 -0.4430
  210SOL     OW 2070   0.556   0.063   5.905  0.4592 -0.0872 -0.3595
  210SOL    HW1 2071   0.549   0.039   5.813 -0.5632 -1.6249  0.0905
  210SOL    HW2 2072   0.467   0.056   5.939  0.8612  0.2037  0.8032
  211SOL     OW 2073   1.742   7.108   0.791  0.2424 -0.2273 -0.3362
  211SOL    HW1 2074   1.792   7.048   0.846 -1.0490 -1.3548 -0.3165
  211SOL    HW2 2075   1.768   7.195   0.819  0.6199 -0.7891  1.1232
  212SOL     OW 2076   4.854   0.651   5.181 -0.2290 -0.1645  0.0537
  212SOL    HW1 2077   4.866   0.564   5.144 -1.6942 -0.7702  0.8829
  212SOL    HW2 2078   4.802   0.698   5.116 -0.7953 -0.4538  0.2869
  213SOL     OW 2079   3.155   4.511   3.327  0.1631 -0.4521  0.3688
  213SOL    HW1 2080   3.206   4.476   3.400 -0.5426 -0.5243  0.8403
  213SOL    HW2 2081   3.064   4.505   3.357 -0.1914 -1.1184 -0.7791
  214SOL     OW 2082   2.776   1.004   1.696 -0.4502 -0.2121 -0.4909
  214SOL    HW1 2083   2.810   0.915   1.683 -0.8554 -0.3988 -0.2745
  214SOL    HW2 2084   2.846   1.061   1.665 -0.7141 -0.6214 -1.8968
  215SOL     OW 2085   4.275   2.412   8.824  0.1404  0.4791 -0.0210
  215SOL    HW1 2086   4.330   2.431   8.900 -0.2626 -1.4679  0.8226
  215SOL    HW2 2087   4.335   2.372   8.760 -0.3550 -2.7464  1.3472
  216SOL     OW 2088   0.538   3.056   6.758  0.0982 -0.0816 -0.0129
  216SOL    HW1 2089   0.618   3.035   6.807 -0.5612 -1.2648  0.6098
  216SOL    HW2 2090   0.491   3.117   6.814  0.6146  0.7445 -0.4526
  217SOL     OW 2091   3.733   7.489   8.322 -0.3272 -0.4678 -0.4478
  217SOL    HW1 2092   3.662   7.443   8.277  1.8486 -1.2534 -3.3912
  217SOL    HW2 2093   3.705   7.580   8.326 -1.5255 -0.7641 -1.5652
  218SOL     OW 2094   0.188   5.193  10.877 -0.0337  0.0672 -0.9439
  218SOL    HW1 2095   0.093   5.193  10.870 -0.0710 -0.9188 -0.6088
  218SOL    HW2 2096   0.208   5.125  10.941  0.8898  0.3560 -0.9043
  219SOL     OW 2097   6.637   7.176  12.252 -0.3560 -0.0145  0.4790
  219SOL    HW1 2098   6.585   7.251  12.222 -2.7483 -1.6086  0.3616
  219SOL    HW2 2099   6.643   7.119  12.175 -1.3880 -1.3927  1.3662
  220SOL     OW 2100   6.574   2.716   3.584 -0.1288 -0.0061 -1.1926
  220SOL    HW1 2101   6.645   2.779   3.594 -0.7805  0.5973 -0.0825
  220SOL    HW2 2102   6.496   2.770   3.569 -0.7691 -0.4941  0.1738
  221SOL     OW 2103   6.976   0.921   5.231 -0.3864 -0.0755 -0.4751
  221SOL    HW1 2104   6.951   0.930   5.323 -3.4417  0.3569 -1.2295
  221SOL    HW2 2105   7.007   1.008   5.206 -1.0880  0.2441 -0.2487
  222SOL     OW 2106   2.672   4.433   6.187  0.1251 -0.3045 -0.0472
  222SOL    HW1 2107   2.736   4.444   6.257  0.8959  1.8432 -0.9982
  222SOL    HW2 2108   2.605   4.375   6.224  1.8690 -1.4563  1.4739
  223SOL     OW 2109   5.794   4.415   2.703  0.3103  0.8551  0.0907
  223SOL    HW1 2110   5.752   4.444   2.784  0.5831  0.1716  0.4803
  223SOL    HW2 2111   5.838   4.493   2.669  0.2891  1.1162  0.6573
  224SOL     OW 2112   1.983   7.894  10.181  0.6447 -0.1670 -0.1921
  224SOL    HW1 2113   1.993   7.987  10.161  2.8328 -0.2936  0.0505
  224SOL    HW2 2114   2.072   7.860  10.183  0.1579 -1.6489  2.6562
  225SOL     OW 2115   2.290   1.731   7.510 -0.4897 -0.0438  0.4015
  225SOL    HW1 2116   2.246   1.700   7.431  0.3449 -1.1014  0.3325
  225SOL    HW2 2117   2.230   1.713   7.581 -0.2740 -1.2580  0.2833
  226SOL     OW 2118   2.207   7.460   4.583  0.2756  0.0957  0.7986
  226SOL    HW1 2119   2.249   7.438   4.500  1.1461  2.2532  0.6181
  226SOL    HW2 2120   2.168   7.377   4.612 -0.4024 -0.6540 -1.9230
  227SOL     OW 2121   3.436   0.137  12.056 -0.7318  0.1502 -0.7254
  227SOL    HW1 2122   3.370   0.092  12.108  0.2467 -0.5303 -0.0215
  227SOL    HW2 2123   3.508   0.073  12.049  0.8230  1.6680  0.5381
  228SOL     OW 2124   7.389   4.047  10.250  0.2707  0.1367  0.1047
  228SOL    HW1 2125   7.424   4.088  10.329 -1.8330  1.2078  0.5269
  228SOL    HW2 2126   7.300   4.080  10.242  0.6520  0.7280 -3.2035
  229SOL     OW 2127   6.114   2.421   8.062  0.1817  0.5732 -0.1669
  229SOL    HW1 2128   6.099   2.471   8.142  0.7979  1.1544 -0.4125
  229SOL    HW2 2129   6.189   2.366   8.082 -0.5276 -0.3128  0.1211
  230SOL     OW 2130   2.281   6.430   0.808  0.7416 -0.0141 -0.0330
  230SOL    HW1 2131   2.307   6.515   0.771  0.7275  0.6098  1.3340
  230SOL    HW2 2132   2.311   6.366   0.744  0.3811  1.0438 -1.2986
  231SOL     OW 2133   2.393   0.352   2.283 -0.0997  0.2043  0.3890
  231SOL    HW1 2134   2.318   0.306   2.247  0.6642  0.3419 -1.4935
  231SOL    HW2 2135   2.359   0.398   2.359 -1.5362 -1.0415  0.5489
  232SOL     OW 2136   6.169   7.044   4.225  0.2659 -0.2529  0.4582
  232SOL    HW1 2137   6.171   7.073   4.317 -1.3810  2.0792 -0.1428
  232SOL    HW2 2138   6.248   7.080   4.187  1.0779 -1.4287  0.9759
  233SOL     OW 2139   3.982   4.916   9.578 -0.4420  0.4487  0.2581
  233SOL    HW1 2140   4.063   4.883   9.616 -0.2193  0.1738 -0.4544
  233SOL    HW2 2141   3.981   5.009   9.602 -0.1376  0.3559  0.6435
  234SOL     OW 2142   3.614   5.365   0.303 -0.3102 -0.5540  0.6471
  234SOL    HW1 2143   3.593   5.274   0.326  0.3574 -1.1629 -1.0187
  234SOL    HW2 2144   3.532   5.412   0.312 -0.7687 -1.4146  1.0935
  235SOL     OW 2145   0.318   7.457   1.493 -0.3773 -0.1204  0.6576
  235SOL    HW1 2146   0.335   7.481   1.402 -1.4623  1.1814  0.7629
  235SOL    HW2 2147   0.378   7.512   1.544 -0.1995 -0.3983  0.7454
  236SOL     OW 2148   5.573   7.865  12.214  0.0337  0.1988 -0.0670
  236SOL    HW1 2149   5.509   7.933  12.228 -1.4027 -1.1642  0.2760
  236SOL    HW2 2150   5.575   7.852  12.119 -1.4710 -0.8777  0.0195
  237SOL     OW 2151   2.199   2.442   0.654  0.0718 -0.5899 -0.0520
  237SOL    HW1 2152   2.281   2.400   0.626  0.4309 -0.5927  0.9800
  237SOL    HW2 2153   2.164   2.383   0.721 -0.8015 -0.6026 -0.5108
  238SOL     OW 2154   6.762   5.238   2.302  0.3006 -0.0673 -0.4758
  238SOL    HW1 2155   6.764   5.191   2.386 -2.7657  1.1420  0.4211
  238SOL    HW2 2156   6.825   5.309   2.312  0.2589 -0.1779  0.6732
  239SOL     OW 2157   2.956   1.722   7.938  0.6352  0.5013  0.4220
  239SOL    HW1 2158   2.957   1.626   7.934 -1.1252  0.4721  0.1149
  239SOL    HW2 2159   2.989   1.749   7.852  2.0546  0.2058  0.8458
  240SOL     OW 2160   3.807   5.665  12.050  0.9393  0.1100  0.8204
  240SOL    HW1 2161   3.747   5.591  12.038  1.5229 -0.2611  0.0326
  240SOL    HW2 2162   3.779   5.729  11.984  0.7662  0.3734  1.1475
  241SOL     OW 2163   1.824   2.518   5.147  0.3506  0.2804 -0.0113
  241SOL    HW1 2164   1.879   2.442   5.125 -0.4145 -0.2825 -0.0334
  241SOL    HW2 2165   1.800   2.556   5.062 -0.9193 -0.6771 -0.1281
  242SOL     OW 2166   7.263   7.516   1.119  0.3887  0.2359 -0.0359
  242SOL    HW1 2167   7.197   7.458   1.157 -0.8383  2.4605  1.4308
  242SOL    HW2 2168   7.321   7.457   1.070 -2.0740 -1.9339 -0.5708
  243SOL     OW 2169   4.693   5.001   9.151 -0.0369 -0.3663  0.8132
  243SOL    HW1 2170   4.747   4.924   9.133 -1.0971 -1.1399  0.8676
  243SOL    HW2 2171   4.711   5.060   9.078 -0.0506 -1.1313  0.1706
  244SOL     OW 2172   6.617   7.645   2.412 -0.4631  0.2497  0.2033
  244SOL    HW1 2173   6.534   7.597   2.414  0.1095 -0.7895 -0.0657
  244SOL    HW2 2174   6.680   7.581   2.379  0.5440  0.8709  0.8815
  245SOL     OW 2175   5.016   5.910   5.903  0.2813 -0.3951  0.0165
  245SOL    HW1 2176   5.011   5.817   5.925 -1.1536 -0.2754  0.3104
  245SOL    HW2 2177   5.000   5.913   5.808  0.7357 -0.4753 -0.0640
  246SOL     OW 2178   1.239   1.833  11.684 -0.5982 -0.1236 -0.0568
  246SOL    HW1 2179   1.328   1.861  11.665 -0.2974 -0.7194  0.4419
  246SOL    HW2 2180   1.210   1.790  11.603 -0.6428  0.5693 -0.4140
  247SOL     OW 2181   7.905   4.177   7.195 -0.3659  0.2949  0.4459
  247SOL    HW1 2182   7.812   4.196   7.184 -0.3099  0.0163 -0.6341
  247SOL    HW2 2183   7.949   4.246   7.145  0.0630  1.1296  1.9264
  248SOL     OW 2184   0.645   5.035   8.332 -0.2656  0.4264 -0.3460
  248SOL    HW1 2185   0.618   4.944   8.341  1.1815  0.0698  0.5120
  248SOL    HW2 2186   0.711   5.034   8.262 -0.4613  0.8756 -0.5434
  249SOL     OW 2187   7.366   4.628   8.184  0.7320 -0.2645 -0.6340
  249SOL    HW1 2188   7.414   4.696   8.137 -0.2341  0.1201 -1.0894
  249SOL    HW2 2189   7.357   4.663   8.273  0.9745 -0.1756 -0.6432
  250SOL     OW 2190   1.829   6.452   9.058  0.1270  1.1276 -0.0832
  250SOL    HW1 2191   1.871   6.469   8.974  0.1575  0.2546 -0.2460
  250SOL    HW2 2192   1.862   6.522   9.115 -0.2287  1.9821 -0.8913
  251SOL     OW 2193   7.487   1.388  11.449  0.6452 -0.3056  0.2791
  251SOL    HW1 2194   7.464   1.462  11.505  0.6903 -0.7481  0.8979
  251SOL    HW2 2195   7.431   1.397  11.372 -0.3362 -0.3741  0.9610
  252SOL     OW 2196   3.759   4.215   0.829 -0.6457 -0.2860 -0.3972
  252SOL    HW1 2197   3.773   4.136   0.882  2.2967  0.3299 -0.0640
  252SOL    HW2 2198   3.780   4.189   0.740 -0.8290 -0.1636 -0.4768
  253SOL     OW 2199   5.316   2.447   0.325  0.5765 -0.3152  0.0781
  253SOL    HW1 2200   5.403   2.455   0.287 -0.0724  1.4292 -1.1822
  253SOL    HW2 2201   5.331   2.444   0.419  1.9867  0.2960 -0.1040
  254SOL     OW 2202   0.362   4.560   4.648  0.3859 -0.6261  0.2659
  254SOL    HW1 2203   0.306   4.607   4.710  0.6785 -0.7738  0.6471
  254SOL    HW2 2204   0.302   4.500   4.603 -0.2231  0.8825 -1.0485
  255SOL     OW 2205   0.363   4.422  11.972  0.0037 -0.1926  0.4646
  255SOL    HW1 2206   0.288   4.425  12.031 -0.3091  0.3076  0.0493
  255SOL    HW2 2207   0.373   4.512  11.942  0.7605 -0.2590  0.4985
  256SOL     OW 2208   4.783   5.159   3.308  0.3379 -0.3092 -0.3500
  256SOL    HW1 2209   4.768   5.073   3.270  2.2014 -0.4768 -0.8090
  256SOL    HW2 2210   4.877   5.160   3.331  0.0202  1.0125  1.1389
  257SOL     OW 2211   5.736   1.300   7.498 -0.0952 -1.0387 -0.1164
  257SOL    HW1 2212   5.696   1.378   7.461  1.5245 -0.3682 -0.5087
  257SOL    HW2 2213   5.692   1.227   7.454  0.6817 -0.2937 -2.2406
  258SOL     OW 2214   0.742   2.761   0.681 -0.3200 -0.0240  0.0955
  258SOL    HW1 2215   0.721   2.799   0.767  2.1359 -1.9755  1.7000
  258SOL    HW2 2216   0.816   2.812   0.649 -0.9110  0.3764 -0.6634
  259SOL     OW 2217   6.624   3.058   8.526 -0.5198 -0.1735 -0.2101
  259SOL    HW1 2218   6.629   3.101   8.441 -0.0132  1.4560  0.6080
  259SOL    HW2 2219   6.553   3.102   8.572  0.7535  0.6503  1.0713
  260SOL     OW 2220   2.593   1.102   6.897  0.0169  0.1970  0.1845
  260SOL    HW1 2221   2.562   1.150   6.974  2.0035  0.6190  0.7796
  260SOL    HW2 2222   2.671   1.150   6.869 -0.7147  0.1224 -2.2009
  261SOL     OW 2223   6.347   1.257   3.810  0.5849 -0.1559  0.0276
  261SOL    HW1 2224   6.393   1.297   3.736  0.5944  1.6906  0.9791
  261SOL    HW2 2225   6.268   1.218   3.771  1.2952 -0.4799 -1.1343
  262SOL     OW 2226   0.046   5.209   7.704 -0.2660  0.0810 -0.2344
  262SOL    HW1 2227   0.140   5.195   7.690 -0.5957 -1.1601 -1.2774
  262SOL    HW2 2228   0.041   5.298   7.739  1.2811  0.2645 -0.4093
  263SOL     OW 2229   0.830   0.331   1.652  0.3768 -0.1085 -0.0742
  263SOL    HW1 2230   0.826   0.353   1.745 -0.1355 -0.8235  0.0788
  263SOL    HW2 2231   0.919   0.356   1.625  0.5604  0.0113  0.6287
  264SOL     OW 2232   6.796   5.224   0.872  0.1250 -0.0192  0.1706
  264SOL    HW1 2233   6.841   5.309   0.870  1.2464 -0.6099 -0.3233
  264SOL    HW2 2234   6.734   5.228   0.799 -0.8103  0.8849  0.9894
  265SOL     OW 2235   0.343   7.711   4.628 -0.2352 -0.3345  0.2491
  265SOL    HW1 2236   0.426   7.678   4.592 -0.2192  0.4367 -0.4622
  265SOL    HW2 2237   0.315   7.777   4.565 -2.1731 -1.6342 -0.3448
  266SOL     OW 2238   0.613   6.959   9.146  0.5257  0.1505  0.3122
  266SOL    HW1 2239   0.554   7.021   9.189  0.7309 -0.9193  2.2475
  266SOL    HW2 2240   0.561   6.879   9.135  0.2351  0.6232 -2.2435
  267SOL     OW 2241   1.867   6.887  11.291 -0.0053 -0.3524 -0.5630
  267SOL    HW1 2242   1.840   6.795  11.295  0.6215 -0.5274 -0.1888
  267SOL    HW2 2243   1.863   6.909  11.198  0.0093 -0.8080 -0.6738
  268SOL     OW 2244   6.834   4.373   9.255  0.0058 -0.5213  0.3656
  268SOL    HW1 2245   6.892   4.389   9.330  0.7946  1.2500 -0.5668
  268SOL    HW2 2246   6.866   4.292   9.217 -0.3811 -1.4309  1.8929
  269SOL     OW 2247   4.107   6.560  11.728 -0.0868 -0.1030 -0.2304
  269SOL    HW1 2248   4.012   6.572  11.729 -0.1922 -0.9292 -0.1108
  269SOL    HW2 2249   4.133   6.563  11.820  0.1409  1.1098 -0.3164
  270SOL     OW 2250   0.909   0.656   9.305  0.4064 -0.4120 -0.5580
  270SOL    HW1 2251   0.855   0.732   9.287  2.7640  1.2265 -1.2954
  270SOL    HW2 2252   0.901   0.602   9.226  0.6177  0.3345 -1.1072
  271SOL     OW 2253   3.308   1.770  11.636  0.2533  0.0971 -0.3223
  271SOL    HW1 2254   3.283   1.719  11.559 -0.4033 -0.9195  0.5408
  271SOL    HW2 2255   3.337   1.704  11.700  3.5642  1.0550 -0.6378
  272SOL     OW 2256   5.299   4.103   6.251  0.6975 -0.0137  0.3906
  272SOL    HW1 2257   5.231   4.069   6.192  0.9998  1.0964 -0.6353
  272SOL    HW2 2258   5.257   4.105   6.337 -0.0910 -0.7055  0.0343
  273SOL     OW 2259   6.885   0.398   4.163 -0.4221  0.3652 -0.0419
  273SOL    HW1 2260   6.934   0.465   4.117 -1.2457  2.5747  2.0681
  273SOL    HW2 2261   6.940   0.374   4.237 -0.3143 -1.0712 -0.5464
  274SOL     OW 2262   2.069   3.747   5.014  0.2853 -0.1063  0.1513
  274SOL    HW1 2263   2.125   3.820   5.041  1.2160 -0.2952 -1.2006
  274SOL    HW2 2264   2.063   3.754   4.919  0.1946 -1.6417  0.0139
  275SOL     OW 2265   7.048   5.021   4.974  0.3213  0.1697  0.9407
  275SOL    HW1 2266   7.133   4.986   4.946 -0.5848 -1.0296 -0.4375
  275SOL    HW2 2267   7.014   4.953   5.033  0.1077  0.4382  1.1274
  276SOL     OW 2268   7.607   0.842  12.045  0.0086 -0.0113  0.2954
  276SOL    HW1 2269   7.529   0.819  11.995  0.2599 -1.2694  0.4404
  276SOL    HW2 2270   7.614   0.937  12.038 -0.0777 -0.1315 -1.8980
  277SOL     OW 2271   0.405   1.722  11.630 -0.1137  0.0194  0.4721
  277SOL    HW1 2272   0.478   1.784  11.632  0.4412 -0.4967 -1.3704
  277SOL    HW2 2273   0.370   1.730  11.541 -0.7900 -1.4286  0.5833
  278SOL     OW 2274   7.869   5.549   0.546 -0.4800  0.2399 -0.0041
  278SOL    HW1 2275   7.905   5.460   0.534 -2.6448 -0.7247  0.2255
  278SOL    HW2 2276   7.942   5.599   0.581  1.2463 -1.0641 -1.4990
  279SOL     OW 2277   3.366   5.176   7.611 -0.4312 -0.1710 -0.1761
  279SOL    HW1 2278   3.427   5.162   7.684 -0.1692 -1.3539 -0.6050
  279SOL    HW2 2279   3.318   5.094   7.604  0.2819 -0.4726 -1.9987
  280SOL     OW 2280   3.234   2.757   4.703 -0.3623 -0.0129 -0.2108
  280SOL    HW1 2281   3.230   2.848   4.674 -0.7008  0.3996  1.0480
  280SOL    HW2 2282   3.182   2.755   4.783 -0.4937 -1.3594 -0.3057
  281SOL     OW 2283   3.117   3.652  10.044 -0.0768  0.1933  0.2809
  281SOL    HW1 2284   3.043   3.616  10.093 -1.1595 -0.3582 -1.6532
  281SOL    HW2 2285   3.187   3.588  10.055 -0.6524 -0.4533  0.2344
  282SOL     OW 2286   3.985   6.936  12.103  0.4042  0.4599 -0.5883
  282SOL    HW1 2287   4.049   6.952  12.035 -1.0242  1.2905 -1.7819
  282SOL    HW2 2288   3.914   6.997  12.085 -1.5620 -1.6293 -0.4404
  283SOL     OW 2289   1.010   5.600   4.782 -0.2182 -0.0635 -0.3441
  283SOL    HW1 2290   0.950   5.673   4.796 -1.7913 -1.2417 -0.7097
  283SOL    HW2 2291   0.959   5.522   4.804  0.6545 -1.2276 -2.1610
  284SOL     OW 2292   2.678   0.891   8.906 -0.7506 -0.4810 -0.0184
  284SOL    HW1 2293   2.752   0.951   8.919  0.0020 -1.3516 -0.1474
  284SOL    HW2 2294   2.608   0.928   8.960  0.2775 -0.4982  1.4104
  285SOL     OW 2295   1.232   7.726   3.088 -0.2308  0.2092  0.3239
  285SOL    HW1 2296   1.323   7.744   3.064 -0.9970  4.1615 -0.2457
  285SOL    HW2 2297   1.210   7.646   3.040  1.9984  0.9428 -2.1279
  286SOL     OW 2298   4.399   4.997   4.436  0.1465  0.2189  0.6435
  286SOL    HW1 2299   4.417   5.041   4.519 -0.5216 -1.4611  1.7213
  286SOL    HW2 2300   4.423   4.906   4.451  1.4103  0.1424 -1.5035
  287SOL     OW 2301   7.699   6.782   6.127 -0.5572  0.0971  0.4177
  287SOL    HW1 2302   7.635   6.808   6.061  0.2469  0.9612 -0.0404
  287SOL    HW2 2303   7.718   6.862   6.176  0.6835  0.0157  0.0990
  288SOL     OW 2304   3.184   0.317   4.683  0.6475  0.1848 -0.4285
  288SOL    HW1 2305   3.270   0.319   4.725  0.2181  0.7719  0.4523
  288SOL    HW2 2306   3.186   0.391   4.622  0.6940  0.3209 -0.2632
  289SOL     OW 2307   2.916   1.816   5.487  0.3658 -0.6335 -0.5492
  289SOL    HW1 2308   2.891   1.869   5.563 -0.2790 -0.5833 -0.7867
  289SOL    HW2 2309   2.978   1.870   5.439  1.2300 -0.8931  0.2353
  290SOL     OW 2310   1.141   5.860   5.869 -0.4163  0.2642  0.4908
  290SOL    HW1 2311   1.181   5.946   5.876  0.1652 -0.0304  0.8679
  290SOL    HW2 2312   1.195   5.804   5.924 -0.1580 -0.5651 -0.5816
  291SOL     OW 2313   7.915   2.798   4.680  0.1013  0.0297 -0.3732
  291SOL    HW1 2314   7.877   2.797   4.592  0.3154 -1.8131 -0.4854
  291SOL    HW2 2315   7.945   2.708   4.695  1.7163  0.7078  0.8836
  292SOL     OW 2316   0.678   0.723   9.152  0.4614 -0.3405 -0.8500
  292SOL    HW1 2317   0.685   0.628   9.149  0.0610 -0.4200  0.3860
  292SOL    HW2 2318   0.651   0.747   9.063  0.4956 -1.3768 -1.1579
  293SOL     OW 2319   2.962   4.866   8.202 -0.8103  0.1118  0.0157
  293SOL    HW1 2320   2.929   4.936   8.258  0.5374  0.0661  0.9187
  293SOL    HW2 2321   2.979   4.793   8.262  0.7870  0.1045 -0.4011
  294SOL     OW 2322   5.951   4.383  10.926  0.1469 -0.4823  0.2274
  294SOL    HW1 2323   5.858   4.371  10.905  0.2058 -0.2588 -0.1756
  294SOL    HW2 2324   5.986   4.432  10.851  0.6114 -0.6549  0.3285
  295SOL     OW 2325   2.083   2.607   1.828  0.5227  0.0489 -0.0917
  295SOL    HW1 2326   2.118   2.555   1.755  0.4681 -0.4017  0.1974
  295SOL    HW2 2327   2.159   2.627   1.882  0.3536 -0.8717  0.5002
  296SOL     OW 2328   3.060   7.123   7.510 -0.2039  0.0064 -0.0979
  296SOL    HW1 2329   3.058   7.029   7.492 -1.5502 -0.5806  2.5657
  296SOL    HW2 2330   3.132   7.133   7.573  0.5478  0.9432 -1.0827
  297SOL     OW 2331   5.857   3.857  11.253 -0.2398  0.2836 -0.0470
  297SOL    HW1 2332   5.848   3.896  11.340  1.4445 -0.9882  0.7445
  297SOL    HW2 2333   5.927   3.907  11.211 -2.5607  2.4775 -1.7111
  298SOL     OW 2334   4.447   7.672  12.112 -0.2752  0.2138 -0.1184
  298SOL    HW1 2335   4.511   7.741  12.097 -2.5167  2.5481  0.3976
  298SOL    HW2 2336   4.442   7.625  12.029  0.5013  1.3643 -0.8400
  299SOL     OW 2337   0.420   3.904  12.336 -0.1670  0.3107  0.6654
  299SOL    HW1 2338   0.404   3.822  12.382  0.8867 -0.0575  0.4140
  299SOL    HW2 2339   0.516   3.913  12.336 -0.2089  0.9154 -0.3691
  300SOL     OW 2340   3.305   4.725   2.092 -0.0489  0.0440 -0.6486
  300SOL    HW1 2341   3.237   4.659   2.082 -0.4165  0.6583 -2.6056
  300SOL    HW2 2342   3.375   4.698   2.033  0.8678  0.1352  0.3532
  301SOL     OW 2343   7.147   5.070   1.986 -0.1369 -0.2998 -0.1068
  301SOL    HW1 2344   7.052   5.074   1.996 -0.4219 -1.9507 -1.5823
  301SOL    HW2 2345   7.172   5.155   1.951 -1.3073 -0.3565 -1.1538
  302SOL     OW 2346   6.458   0.867   5.844  0.4690 -0.4699 -0.3436
  302SOL    HW1 2347   6.460   0.827   5.931  0.5075 -0.2169 -0.2267
  302SOL    HW2 2348   6.436   0.959   5.861 -0.5018 -0.6253 -0.6719
  303SOL     OW 2349   0.961   3.100   9.384  0.3289 -0.0902 -0.3006
  303SOL    HW1 2350   0.910   3.121   9.462  0.0866  0.4722 -0.6061
  303SOL    HW2 2351   1.040   3.152   9.393  0.1584  0.2198 -0.5833
  304SOL     OW 2352   4.382   5.265   6.755  0.4016 -0.4316  0.4812
  304SOL    HW1 2353   4.369   5.180   6.714  1.3207 -1.4636  2.1862
  304SOL    HW2 2354   4.307   5.317   6.727  1.4664 -0.6629 -3.2267
  305SOL     OW 2355   5.929   5.602  11.963  0.0360 -0.4713  0.1990
  305SOL    HW1 2356   5.912   5.605  11.869 -2.1358 -0.9537  0.5201
  305SOL    HW2 2357   5.847   5.631  12.003  0.9278 -0.2448  1.9585
  306SOL     OW 2358   7.055   4.856   6.066 -0.3668  0.5012 -0.7179
  306SOL    HW1 2359   7.100   4.771   6.062  0.6460  0.9935 -0.2301
  306SOL    HW2 2360   7.016   4.859   6.153 -0.0586  0.6997 -0.5851
  307SOL     OW 2361   4.441   0.106   5.498 -0.2079 -0.2168  0.6280
  307SOL    HW1 2362   4.484   0.080   5.417  1.6255  0.8166  1.2107
  307SOL    HW2 2363   4.379   0.173   5.471  0.7822  0.5213  0.1115
  308SOL     OW 2364   6.749   3.859  10.270  0.0608 -0.0203  0.2673
  308SOL    HW1 2365   6.663   3.844  10.310  1.2933  0.2232  3.2056
  308SOL    HW2 2366   6.786   3.772  10.260  0.0660 -0.0375  0.4306
  309SOL     OW 2367   1.328   7.702   6.167 -0.4251 -0.3921 -0.0995
  309SOL    HW1 2368   1.408   7.749   6.146 -0.4398 -0.9831 -1.6130
  309SOL    HW2 2369   1.358   7.617   6.199 -0.4288 -0.1360  0.5836
  310SOL     OW 2370   2.321   2.312  12.001  0.1590 -0.2374 -0.5188
  310SOL    HW1 2371   2.342   2.406  12.005 -2.2828  0.3525  0.2844
  310SOL    HW2 2372   2.274   2.301  11.918  1.7196 -1.0979 -1.3285
  311SOL     OW 2373   4.183   1.102   1.808 -0.2531 -0.3565 -0.0290
  311SOL    HW1 2374   4.193   1.017   1.764  1.9378  0.6410 -1.6423
  311SOL    HW2 2375   4.113   1.146   1.759  0.2170 -0.3485 -0.7056
  312SOL     OW 2376   3.100   4.370   3.973 -0.1904  0.4012  0.1158
  312SOL    HW1 2377   3.067   4.296   3.923  0.3888 -0.0226  0.3572
  312SOL    HW2 2378   3.132   4.333   4.055  2.4920  0.5114 -0.7930
  313SOL     OW 2379   1.205   3.734   7.848 -0.0733 -0.2096 -0.1594
  313SOL    HW1 2380   1.130   3.792   7.833  1.7056  1.8258 -1.9889
  313SOL    HW2 2381   1.257   3.779   7.915  1.0965  0.1637 -1.2588
  314SOL     OW 2382   7.351   6.450   3.087 -0.2972  0.6085  0.0921
  314SOL    HW1 2383   7.304   6.487   3.162 -0.8262 -0.7059  0.4233
  314SOL    HW2 2384   7.353   6.356   3.103  0.3342  0.3896 -1.1309
  315SOL     OW 2385   1.795   3.138   5.730  0.0894  0.3250  0.1021
  315SOL    HW1 2386   1.765   3.140   5.639  0.4406  3.3104 -0.0636
  315SOL    HW2 2387   1.890   3.129   5.724  0.1675  1.0528  0.1086
  316SOL     OW 2388   7.091   5.076   8.043  0.0231 -0.3852 -0.1998
  316SOL    HW1 2389   7.013   5.021   8.050  1.0242 -1.7520  0.8701
  316SOL    HW2 2390   7.160   5.016   8.012  0.5831  0.8713 -1.5145
  317SOL     OW 2391   3.107   4.698   0.313  0.3282  0.2987 -0.5440
  317SOL    HW1 2392   3.050   4.626   0.339 -1.6975  1.7394 -0.6794
  317SOL    HW2 2393   3.192   4.677   0.351 -0.9700 -0.6371  2.0938
  318SOL     OW 2394   2.407   0.432   5.284 -0.4107  1.0802  0.2046
  318SOL    HW1 2395   2.367   0.506   5.330 -0.3997  1.1587  0.0880
  318SOL    HW2 2396   2.337   0.367   5.276 -0.9739  1.8443 -1.4097
  319SOL     OW 2397   1.280   6.549   1.696 -0.1390  0.8641  0.0527
  319SOL    HW1 2398   1.361   6.600   1.699  1.0001 -0.8770  0.2739
  319SOL    HW2 2399   1.275   6.507   1.782 -1.2857  0.9145  0.0340
  320SOL     OW 2400   1.416   1.616   4.416 -0.2663 -0.1569 -0.0702
  320SOL    HW1 2401   1.511   1.612   4.403 -0.2738  1.3834 -0.8091
  320SOL    HW2 2402   1.403   1.684   4.482 -0.8381 -0.9341  0.6571
  321SOL     OW 2403   6.377   2.040   5.996  0.0359 -0.1817 -0.2299
  321SOL    HW1 2404   6.350   1.963   6.047  1.3204  0.1773  1.0414
  321SOL    HW2 2405   6.458   2.013   5.953 -0.4417 -0.0950 -1.2440
  322SOL     OW 2406   0.861   0.392  10.892  0.0968 -0.5173  0.2512
  322SOL    HW1 2407   0.803   0.384  10.816  0.0584 -0.4320  0.2726
  322SOL    HW2 2408   0.804   0.378  10.968  0.0484 -0.1423  0.2846
  323SOL     OW 2409   1.562   6.267   2.016 -0.4433  0.1858 -0.1875
  323SOL    HW1 2410   1.640   6.315   1.989  0.7011 -1.3375  0.3012
  323SOL    HW2 2411   1.567   6.184   1.969 -0.6528 -0.7872  1.4442
  324SOL     OW 2412   2.430   7.032  11.464 -0.4858 -0.0175  0.3690
  324SOL    HW1 2413   2.366   6.965  11.486 -1.8084  1.0523 -0.1320
  324SOL    HW2 2414   2.482   7.041  11.544 -0.5093 -1.3539  0.5697
  325SOL     OW 2415   1.046   2.413   3.246 -0.1079 -0.2970  0.2363
  325SOL    HW1 2416   1.118   2.422   3.309  1.5766  0.2771 -1.6593
  325SOL    HW2 2417   1.000   2.497   3.250 -0.8782 -0.7447  1.6137
  326SOL     OW 2418   7.006   5.598   3.877  0.0523  0.3909 -0.0262
  326SOL    HW1 2419   7.069   5.654   3.831  0.8299 -1.7854 -1.7994
  326SOL    HW2 2420   7.058   5.524   3.909 -1.4727 -1.2701 -1.1777
  327SOL     OW 2421   4.221   7.481   1.293 -0.1397 -0.1711  0.2001
  327SOL    HW1 2422   4.144   7.537   1.282  0.3623  0.8895  1.7246
  327SOL    HW2 2423   4.185   7.395   1.316 -0.8812  0.3907  1.2293
  328SOL     OW 2424   1.493   1.924  11.666  0.6059 -0.2776 -0.6250
  328SOL    HW1 2425   1.528   1.900  11.752 -1.6533  0.2489  0.5129
  328SOL    HW2 2426   1.570   1.926  11.609  2.2889  0.0592  1.5243
  329SOL     OW 2427   1.177   1.463   1.293  0.2794 -0.2220  0.3915
  329SOL    HW1 2428   1.159   1.449   1.386 -1.8908  0.2611  0.1133
  329SOL    HW2 2429   1.100   1.427   1.249  0.2089  1.5825 -1.0582
  330SOL     OW 2430   7.186   0.729  11.471 -0.4833  0.3132 -0.3133
  330SOL    HW1 2431   7.206   0.687  11.554 -0.3184  0.6192 -0.1966
  330SOL    HW2 2432   7.237   0.811  11.472  0.9423 -0.5031 -1.4773
  331SOL     OW 2433   2.679   4.498  10.378 -0.9178  0.1452  0.2682
  331SOL    HW1 2434   2.594   4.504  10.334 -2.3179 -0.5139  2.6894
  331SOL    HW2 2435   2.716   4.416  10.347 -2.2876 -0.7718  0.9409
  332SOL     OW 2436   4.075   5.324   5.562 -0.2366  0.0293 -0.6512
  332SOL    HW1 2437   4.073   5.229   5.557  1.9405 -0.0465 -1.3270
  332SOL    HW2 2438   4.014   5.353   5.494 -0.9509 -0.8833 -0.4039
  333SOL     OW 2439   6.703   6.393  10.808  0.1383 -0.2162  0.4193
  333SOL    HW1 2440   6.704   6.329  10.738  0.2291 -0.2458  0.4473
  333SOL    HW2 2441   6.766   6.360  10.872 -1.9566 -1.6885  1.8555
  334SOL     OW 2442   0.410   3.284   4.713 -0.0139 -0.1771 -0.4647
  334SOL    HW1 2443   0.413   3.201   4.666  1.0616  0.3465 -1.3787
  334SOL    HW2 2444   0.483   3.335   4.677  1.1363  0.1120  2.0553
  335SOL     OW 2445   5.764   3.036   2.573 -0.2304 -0.3793 -0.3692
  335SOL    HW1 2446   5.850   3.077   2.579 -0.7138  0.7235 -0.7313
  335SOL    HW2 2447   5.710   3.085   2.636 -1.4525  1.2514 -2.5595
  336SOL     OW 2448   6.071   2.816   1.529  0.4999 -0.5126  0.0094
  336SOL    HW1 2449   6.075   2.740   1.588  3.6943  0.0852  0.8017
  336SOL    HW2 2450   6.131   2.880   1.569 -1.2205  2.0366 -1.1986
  337SOL     OW 2451   4.118   6.417   5.558  0.1157 -0.3189  0.4676
  337SOL    HW1 2452   4.167   6.472   5.497  0.6391 -2.0424 -0.7439
  337SOL    HW2 2453   4.056   6.370   5.503 -0.9660 -0.2620  1.6040
  338SOL     OW 2454   3.955   5.334   2.104 -0.1328 -0.3150  0.0033
  338SOL    HW1 2455   3.863   5.323   2.082 -0.6304  1.3009  1.1387
  338SOL    HW2 2456   4.001   5.327   2.020 -1.3936 -0.0373 -0.7327
  339SOL     OW 2457   0.495   1.572   2.053 -0.0292  0.2980 -0.3606
  339SOL    HW1 2458   0.402   1.585   2.036 -0.6543 -2.9877  0.0262
  339SOL    HW2 2459   0.508   1.604   2.143 -0.8460  0.4262 -0.2843
  340SOL     OW 2460   2.720   2.286   3.666 -0.2963 -0.1666  0.2671
  340SOL    HW1 2461   2.759   2.354   3.612  2.6660 -1.7341  0.2339
  340SOL    HW2 2462   2.767   2.206   3.642  0.0193 -1.2502  3.9179
  341SOL     OW 2463   4.529   7.117   4.066 -0.0894 -0.3672  0.0842
  341SOL    HW1 2464   4.471   7.182   4.106  0.0414 -0.5890  0.6392
  341SOL    HW2 2465   4.470   7.054   4.025 -0.2156  0.4101 -0.9709
  342SOL     OW 2466   1.329   0.033   8.787 -0.0474 -0.1430 -0.0603
  342SOL    HW1 2467   1.324   0.097   8.716 -2.2040  1.8547  1.7178
  342SOL    HW2 2468   1.246  -0.015   8.783  0.1151 -0.5091  0.6665
  343SOL     OW 2469   7.628   6.280   9.258  0.7412  0.3749 -0.3137
  343SOL    HW1 2470   7.634   6.326   9.174  0.2614  1.4895  0.2469
  343SOL    HW2 2471   7.565   6.210   9.243 -1.2159  2.0427 -0.2566
  344SOL     OW 2472   0.839   6.441   0.972  0.3868  0.1696 -0.2600
  344SOL    HW1 2473   0.922   6.434   0.925  1.1503  0.2806  1.0108
  344SOL    HW2 2474   0.787   6.367   0.941  1.6754 -1.0095  0.2665
  345SOL     OW 2475   5.871   5.764   7.881 -0.0865 -0.3642  0.0821
  345SOL    HW1 2476   5.833   5.700   7.820 -0.9965  0.6475 -0.4506
  345SOL    HW2 2477   5.928   5.818   7.827 -1.7203  1.2234 -0.1570
  346SOL     OW 2478   2.968   2.525  10.622 -0.3585 -0.2200 -0.3751
  346SOL    HW1 2479   2.881   2.567  10.621  0.0575  0.6920 -1.8887
  346SOL    HW2 2480   2.999   2.538  10.712 -1.3024  0.5046 -0.1260
  347SOL     OW 2481   2.696   4.419  11.683  0.0912 -0.6601  0.1905
  347SOL    HW1 2482   2.626   4.485  11.692 -0.7043 -1.4166 -0.2387
  347SOL    HW2 2483   2.708   4.384  11.771  0.1466 -0.3130  0.3227
  348SOL     OW 2484   6.084   3.355   1.883  0.4986  0.6266 -0.0058
  348SOL    HW1 2485   6.178   3.339   1.886  0.6766  1.5917 -0.0284
  348SOL    HW2 2486   6.070   3.403   1.802 -0.2321 -0.7591 -0.7298
  349SOL     OW 2487   0.849   3.650   7.930 -0.0593  0.0641  0.3437
  349SOL    HW1 2488   0.873   3.623   7.841  0.6467  0.7593  0.3082
  349SOL    HW2 2489   0.927   3.629   7.982 -0.6929 -0.9244  0.9376
  350SOL     OW 2490   1.099   6.411  12.180  0.3938 -0.6909 -0.0165
  350SOL    HW1 2491   1.078   6.494  12.222  0.3456 -0.0150 -1.3122
  350SOL    HW2 2492   1.195   6.407  12.183  0.3408 -1.6818  2.0062
  351SOL     OW 2493   1.177   2.471   1.904  0.0912  0.0112  0.1011
  351SOL    HW1 2494   1.219   2.386   1.891  0.9618  0.2749  1.0335
  351SOL    HW2 2495   1.091   2.451   1.940  0.1294 -0.4824 -0.0829
  352SOL     OW 2496   4.775   5.400   9.783 -0.3935 -0.2404  0.1447
  352SOL    HW1 2497   4.793   5.491   9.762  1.5458 -0.3884  1.0369
  352SOL    HW2 2498   4.827   5.349   9.721 -0.2738 -0.7309  0.6338
  353SOL     OW 2499   5.669   0.190  10.233  0.4036  0.7196  0.5282
  353SOL    HW1 2500   5.607   0.250  10.193  0.6816  2.4005  2.4557
  353SOL    HW2 2501   5.620   0.108  10.245 -0.3654  0.9262 -1.0038
  354SOL     OW 2502   2.361   3.027   4.558  0.2528 -0.1097 -0.0850
  354SOL    HW1 2503   2.359   2.980   4.475  0.4452  1.7768 -1.2174
  354SOL    HW2 2504   2.315   3.109   4.540  0.6274  0.5030  1.5636
  355SOL     OW 2505   2.446   4.094  10.716 -0.3505  0.6721  0.6998
  355SOL    HW1 2506   2.530   4.139  10.729  0.3789 -0.5354  0.3715
  355SOL    HW2 2507   2.460   4.040  10.638 -1.8313  1.3243 -0.0564
  356SOL     OW 2508   0.145   4.388  12.136 -0.1787  0.0771 -0.1841
  356SOL    HW1 2509   0.106   4.302  12.123  0.9778 -0.2189 -2.0904
  356SOL    HW2 2510   0.070   4.447  12.146 -1.0385 -0.8909 -0.7157
  357SOL     OW 2511   4.828   5.993   6.994  0.3370  0.0331  0.6336
  357SOL    HW1 2512   4.829   5.905   7.032  0.2839  0.4196  1.5497
  357SOL    HW2 2513   4.919   6.021   6.996  0.4780 -0.3261 -0.4453
  358SOL     OW 2514   3.019   4.284   1.200  0.2325 -0.2633 -0.0744
  358SOL    HW1 2515   2.962   4.219   1.159  0.7277 -0.8806  0.1961
  358SOL    HW2 2516   2.971   4.367   1.193 -1.7848 -1.1268  2.2719
  359SOL     OW 2517   1.113   3.944   1.649  0.2175 -0.0739  0.8536
  359SOL    HW1 2518   1.076   3.888   1.581 -0.5506 -1.9187  2.6574
  359SOL    HW2 2519   1.070   4.028   1.637 -0.8106 -0.7167 -0.1733
  360SOL     OW 2520   0.219   6.578   4.672  0.1896  0.1972  0.8793
  360SOL    HW1 2521   0.156   6.533   4.615 -2.0938  3.4185  0.5521
  360SOL    HW2 2522   0.240   6.514   4.740 -0.2678 -2.3573 -1.2261
  361SOL     OW 2523   5.311   4.126   4.334 -0.5213 -0.2992  0.1818
  361SOL    HW1 2524   5.378   4.108   4.269  0.8335 -0.2537  1.5141
  361SOL    HW2 2525   5.261   4.045   4.340 -2.1503  0.3825 -2.4884
  362SOL     OW 2526   6.324   6.792   2.974  0.2907 -0.1810  0.3696
  362SOL    HW1 2527   6.387   6.859   2.947  2.1456 -2.1196 -0.3906
  362SOL    HW2 2528   6.249   6.805   2.915  2.2702 -1.2264 -2.5799
  363SOL     OW 2529   1.385   4.760   7.192 -0.5242 -0.1037 -0.5437
  363SOL    HW1 2530   1.369   4.815   7.115 -0.0418 -1.0609 -1.3468
  363SOL    HW2 2531   1.382   4.670   7.159 -0.6891 -0.5499  0.6329
  364SOL     OW 2532   2.397   3.579   7.714  0.1401  0.2003 -0.4138
  364SOL    HW1 2533   2.417   3.666   7.749  1.0376 -0.1062 -0.1453
  364SOL    HW2 2534   2.416   3.520   7.787 -1.4669 -0.1480 -0.2382
  365SOL     OW 2535   2.602   1.316  10.455  0.0174  0.2231 -0.3010
  365SOL    HW1 2536   2.609   1.411  10.452  1.4520  0.1024 -2.2766
  365SOL    HW2 2537   2.634   1.293  10.543  0.0901  1.5151  0.0332
  366SOL     OW 2538   5.857   6.709   7.297  0.5665 -0.1766  0.1709
  366SOL    HW1 2539   5.850   6.644   7.227 -0.4356 -0.6637  0.6980
  366SOL    HW2 2540   5.842   6.660   7.377 -0.1136  0.6862  0.5882
  367SOL     OW 2541   1.033   5.775   2.299 -0.0193 -0.1274 -0.0366
  367SOL    HW1 2542   1.083   5.818   2.369  1.5835 -1.3175 -0.3788
  367SOL    HW2 2543   1.084   5.696   2.280 -1.4450 -0.7799 -1.2556
  368SOL     OW 2544   1.978   4.754   5.206  0.0748  0.0984  0.7884
  368SOL    HW1 2545   1.998   4.749   5.300  0.6941  0.6499  0.6956
  368SOL    HW2 2546   2.042   4.816   5.172 -0.4481  0.2560  0.0784
  369SOL     OW 2547   6.463   3.810   3.479 -0.1728 -0.3248  0.0716
  369SOL    HW1 2548   6.391   3.873   3.482  0.6398  0.9118 -2.5391
  369SOL    HW2 2549   6.422   3.727   3.454 -0.8019  0.2121 -0.7386
  370SOL     OW 2550   0.236   6.904   5.140  0.4039  0.4545 -0.3475
  370SOL    HW1 2551   0.253   6.819   5.101  2.0004  0.6628 -0.1919
  370SOL    HW2 2552   0.300   6.911   5.211 -1.0141  0.9700  0.9420
  371SOL     OW 2553   3.780   4.461   0.677  0.3428 -0.1085  0.2556
  371SOL    HW1 2554   3.763   4.455   0.583  1.1541  2.5417 -0.1441
  371SOL    HW2 2555   3.869   4.496   0.684  0.3818 -0.4495  2.0230
  372SOL     OW 2556   3.852   7.269   4.349 -0.6177 -0.6846 -0.1561
  372SOL    HW1 2557   3.814   7.275   4.261  1.1711 -1.7934 -1.0709
  372SOL    HW2 2558   3.808   7.194   4.389 -0.9344 -0.6137 -0.3663
  373SOL     OW 2559   1.095   1.692   2.399 -0.1745  0.2997 -0.1915
  373SOL    HW1 2560   1.185   1.721   2.385 -0.5024  0.1612 -3.3534
  373SOL    HW2 2561   1.042   1.770   2.385 -0.6246  0.0955  0.3461
  374SOL     OW 2562   7.229   3.064   8.884  0.5827  0.2962 -0.4294
  374SOL    HW1 2563   7.258   3.020   8.804 -1.3703 -1.7460 -0.1248
  374SOL    HW2 2564   7.143   3.026   8.902  0.7972  0.9651  2.4599
  375SOL     OW 2565   7.010   0.879  11.197 -0.0988  0.7887  0.3730
  375SOL    HW1 2566   7.080   0.820  11.169 -1.3708 -0.0133 -1.3243
  375SOL    HW2 2567   7.041   0.916  11.279  1.5395 -0.8888  0.5797
  376SOL     OW 2568   1.229   2.842   9.990 -0.1274  0.0907 -0.3138
  376SOL    HW1 2569   1.183   2.773  10.036  0.6153 -0.0054  0.2954
  376SOL    HW2 2570   1.300   2.867  10.048 -1.0918  2.2286  0.0528
  377SOL     OW 2571   2.113   1.220  11.966 -0.2380 -0.4995 -0.5010
  377SOL    HW1 2572   2.073   1.261  12.042 -0.4782  0.6696 -1.2304
  377SOL    HW2 2573   2.202   1.256  11.964  0.1760 -1.4758 -0.0804
  378SOL     OW 2574   3.595   6.330  11.448  0.5073 -0.6954  0.1082
  378SOL    HW1 2575   3.502   6.340  11.427  0.6184  0.2587  0.0226
  378SOL    HW2 2576   3.640   6.372  11.375  0.9220  1.7938  1.6735
  379SOL     OW 2577   4.274   7.727   7.366 -0.3990  0.0287  0.4358
  379SOL    HW1 2578   4.302   7.807   7.321 -0.3496  0.6100  1.4803
  379SOL    HW2 2579   4.224   7.679   7.300  1.5180 -0.2100 -0.9354
  380SOL     OW 2580   3.992   5.320   1.401 -0.2039 -0.0424  0.7916
  380SOL    HW1 2581   4.030   5.249   1.350 -0.2428  0.1275  0.5220
  380SOL    HW2 2582   4.042   5.397   1.376 -0.6421  0.1586  0.5255
  381SOL     OW 2583   1.024   2.708   1.678 -0.3673 -0.3595  0.1875
  381SOL    HW1 2584   0.975   2.627   1.669  0.4738 -0.6935 -2.7563
  381SOL    HW2 2585   1.116   2.681   1.669 -0.0873  0.8756 -1.0993
  382SOL     OW 2586   6.167   6.202   3.392 -0.0381  0.1438  0.5578
  382SOL    HW1 2587   6.183   6.254   3.471  0.6622 -1.1464  1.3142
  382SOL    HW2 2588   6.095   6.143   3.417 -0.8120  0.7110 -0.2764
  383SOL     OW 2589   5.434   1.906   5.249  0.0532  0.4819 -0.0698
  383SOL    HW1 2590   5.518   1.876   5.215 -0.5380  1.0647 -2.1999
  383SOL    HW2 2591   5.374   1.834   5.231  0.3089 -0.5950  2.8567
  384SOL     OW 2592   4.162   2.140   8.096  0.2039 -0.2515 -0.2155
  384SOL    HW1 2593   4.118   2.055   8.099  1.3217 -0.8569 -0.4514
  384SOL    HW2 2594   4.101   2.200   8.139 -0.9765 -0.9922 -0.7957
  385SOL     OW 2595   5.225   2.194   5.932  0.6310 -0.2184  0.0290
  385SOL    HW1 2596   5.297   2.199   5.995  0.6846 -0.6026  0.0033
  385SOL    HW2 2597   5.157   2.146   5.978  0.8144 -0.8427 -0.3325
  386SOL     OW 2598   0.118   6.428   0.246  0.4588  0.5940 -0.4160
  386SOL    HW1 2599   0.060   6.395   0.315 -1.5794  0.9497 -1.8720
  386SOL    HW2 2600   0.101   6.522   0.244  1.3640  0.7604 -0.6396
  387SOL     OW 2601   2.952   0.219   2.629  0.5174 -0.2001  0.5485
  387SOL    HW1 2602   3.029   0.263   2.593  0.4921 -0.9943 -0.5261
  387SOL    HW2 2603   2.920   0.165   2.557 -2.6840  2.1483 -0.0034
  388SOL     OW 2604   2.906   5.702   1.439 -0.3485 -0.1618 -0.3827
  388SOL    HW1 2605   2.998   5.685   1.419 -0.2109  0.2602 -0.1225
  388SOL    HW2 2606   2.869   5.615   1.455 -0.0124 -0.3395 -0.5540
  389SOL     OW 2607   7.426   2.460   6.912  0.6336  0.3861  0.0949
  389SOL    HW1 2608   7.388   2.543   6.883 -0.7574  0.1057  1.0483
  389SOL    HW2 2609   7.365   2.393   6.880  0.6871 -0.1287  1.0401
  390SOL     OW 2610   6.043   6.737   2.427 -0.3355 -0.3917  0.2247
  390SOL    HW1 2611   6.073   6.721   2.338  0.7484  0.4771  0.4045
  390SOL    HW2 2612   6.122   6.767   2.473 -0.9336 -0.5906  1.4058
  391SOL     OW 2613   3.797   4.108   0.584  0.1424 -0.1914  0.2294
  391SOL    HW1 2614   3.827   4.035   0.638  0.5622 -0.0276  0.2218
  391SOL    HW2 2615   3.703   4.094   0.575  0.3977 -1.3867 -0.7664
  392SOL     OW 2616   4.485   7.246   6.792 -0.5358 -0.0765 -0.7950
  392SOL    HW1 2617   4.405   7.277   6.833 -1.1559 -0.7848 -1.4487
  392SOL    HW2 2618   4.530   7.327   6.766  1.0102  0.5607  3.1779
  393SOL     OW 2619   0.370   7.773   4.286 -0.0440  0.3487 -0.4722
  393SOL    HW1 2620   0.337   7.794   4.374  1.8705  0.5704  0.2493
  393SOL    HW2 2621   0.442   7.834   4.273  0.5792 -0.5959 -1.6257
  394SOL     OW 2622   2.311   3.263   8.592  0.3682 -0.5208 -0.1024
  394SOL    HW1 2623   2.257   3.215   8.529 -0.9602  0.0718  0.5468
  394SOL    HW2 2624   2.251   3.286   8.663  0.6452  2.9222 -0.7851
  395SOL     OW 2625   4.982   2.492   1.991 -0.0507 -0.0721 -0.5386
  395SOL    HW1 2626   5.069   2.451   1.984  0.1578  0.3204 -0.2894
  395SOL    HW2 2627   4.982   2.532   2.077 -0.7202 -0.5967 -0.2887
  396SOL     OW 2628   6.953   1.062   5.895  0.8624  0.2551 -0.4190
  396SOL    HW1 2629   6.943   1.136   5.835  0.5523 -0.4345 -1.2377
  396SOL    HW2 2630   7.008   1.095   5.965  2.0068  0.8086 -1.5467
  397SOL     OW 2631   0.487   0.106   8.448  0.1910  0.7042  0.0890
  397SOL    HW1 2632   0.498   0.161   8.370  0.0935  0.5764 -0.0146
  397SOL    HW2 2633   0.472   0.168   8.519 -2.5136  0.7703 -0.4236
  398SOL     OW 2634   6.345   4.337  12.046 -0.7536 -0.0937 -0.8029
  398SOL    HW1 2635   6.302   4.387  12.115 -0.8982 -0.1333 -0.8654
  398SOL    HW2 2636   6.287   4.343  11.971 -1.3318 -1.2846 -0.4795
  399SOL     OW 2637   7.386   4.838  10.206 -0.3682 -0.1876  0.3657
  399SOL    HW1 2638   7.463   4.840  10.263 -1.4412 -1.0919  1.9418
  399SOL    HW2 2639   7.318   4.796  10.259 -1.7862  0.0276 -1.1824
  400SOL     OW 2640   6.246   1.215   7.343  0.1596 -0.0626  0.4086
  400SOL    HW1 2641   6.276   1.186   7.429 -0.6829 -0.7406  0.4859
  400SOL    HW2 2642   6.289   1.155   7.281  0.0629 -0.1411  0.4183
  401SOL     OW 2643   2.620   3.047   7.858 -0.2331 -0.4562  0.1844
  401SOL    HW1 2644   2.596   3.117   7.797  1.2689  0.5513  0.7019
  401SOL    HW2 2645   2.705   3.074   7.893  0.7506 -2.8972 -0.1460
  402SOL     OW 2646   1.810   7.766  11.659  0.1041  0.4039  0.5690
  402SOL    HW1 2647   1.874   7.721  11.604 -0.3941  0.4368 -0.0510
  402SOL    HW2 2648   1.727   7.724  11.639 -0.2266  1.0044  0.6383
  403SOL     OW 2649   1.974   5.001   3.616  0.1399 -0.0593 -0.1322
  403SOL    HW1 2650   1.932   4.958   3.690  0.9855  0.2971  0.5720
  403SOL    HW2 2651   1.991   5.090   3.647 -0.9096  0.5911 -1.3052
  404SOL     OW 2652   5.141   3.887   1.413  0.1604  0.0719  0.2718
  404SOL    HW1 2653   5.227   3.852   1.391  1.0894  1.2812  1.7595
  404SOL    HW2 2654   5.139   3.885   1.509 -0.4364  2.3859  0.3589
  405SOL     OW 2655   3.008   7.553  10.644  0.1018  0.1904  0.4928
  405SOL    HW1 2656   3.078   7.498  10.678  0.5835  0.7322  0.3915
  405SOL    HW2 2657   2.943   7.491  10.610  0.9417 -0.3135 -0.2288
  406SOL     OW 2658   3.253   4.334   4.413  0.2622  0.6122 -0.0303
  406SOL    HW1 2659   3.190   4.294   4.473 -0.0795  0.8319 -0.2395
  406SOL    HW2 2660   3.314   4.263   4.391  0.8027  0.6901  1.1034
  407SOL     OW 2661   0.188   7.400   8.882 -0.3983 -0.1858 -0.4850
  407SOL    HW1 2662   0.212   7.469   8.943 -0.2688  0.1526 -0.9164
  407SOL    HW2 2663   0.271   7.356   8.861 -0.5622 -0.8769  0.2690
  408SOL     OW 2664   5.188   5.810  10.617 -0.1768  0.2149  0.1033
  408SOL    HW1 2665   5.171   5.744  10.549 -0.2084 -0.2778  0.5848
  408SOL    HW2 2666   5.160   5.768  10.698 -0.2526  0.8476  0.4073
  409SOL     OW 2667   3.639   0.925   6.031 -0.0535 -0.4583 -0.3129
  409SOL    HW1 2668   3.666   0.834   6.041 -0.3006 -0.3861  1.2369
  409SOL    HW2 2669   3.624   0.956   6.121 -1.1198  0.7590 -0.8784
  410SOL     OW 2670   7.326   0.569   5.280  0.1429 -0.0901  0.3599
  410SOL    HW1 2671   7.368   0.519   5.350  1.1093  1.4910  0.9516
  410SOL    HW2 2672   7.312   0.656   5.317  0.8319  0.8461 -1.4636
  411SOL     OW 2673   6.306   0.961   8.417  0.2638 -0.0744  0.1572
  411SOL    HW1 2674   6.252   0.896   8.372 -0.6725  2.1308 -2.1487
  411SOL    HW2 2675   6.249   0.995   8.486 -1.6339  2.4634 -2.4575
  412SOL     OW 2676   3.844   3.374  11.036  0.2424  0.1349  0.1990
  412SOL    HW1 2677   3.934   3.340  11.037  0.4261  0.5600 -0.8180
  412SOL    HW2 2678   3.795   3.310  10.984  0.3340  0.7910 -0.7063
  413SOL     OW 2679   3.480   6.992   0.583  0.4785  0.2171  0.0021
  413SOL    HW1 2680   3.387   6.999   0.562  0.5907  0.8444 -0.2901
  413SOL    HW2 2681   3.521   6.970   0.499  0.6707  0.6067 -0.0060
  414SOL     OW 2682   0.737   3.772   6.801  0.0599  0.1387 -0.1587
  414SOL    HW1 2683   0.820   3.800   6.763 -0.4288  0.0953 -1.2962
  414SOL    HW2 2684   0.714   3.842   6.863  0.8627  0.2224  0.0535
  415SOL     OW 2685   0.338   5.827   5.726 -0.4796 -0.2267 -0.1278
  415SOL    HW1 2686   0.285   5.748   5.734 -0.0127 -0.5277 -0.0048
  415SOL    HW2 2687   0.331   5.851   5.633  0.6169 -1.2881 -0.5146
  416SOL     OW 2688   7.197   7.657   0.755 -0.2146 -0.2309  0.7010
  416SOL    HW1 2689   7.262   7.696   0.813  0.6849 -0.6594  0.0077
  416SOL    HW2 2690   7.150   7.731   0.718  1.0959  0.2023 -0.1658
  417SOL     OW 2691   1.157   2.081   9.074  0.3153  0.1086  0.1313
  417SOL    HW1 2692   1.235   2.028   9.085 -0.2423 -0.4987  1.4356
  417SOL    HW2 2693   1.085   2.018   9.075 -0.2169  0.6762 -0.7963
  418SOL     OW 2694   0.199   6.507   6.681  0.2613 -0.1800  0.1276
  418SOL    HW1 2695   0.265   6.571   6.707 -0.9669  1.2815 -0.1704
  418SOL    HW2 2696   0.179   6.459   6.762  0.7872  0.2081  0.4952
  419SOL     OW 2697   4.022   5.187  10.653 -0.4664 -0.3964  0.2402
  419SOL    HW1 2698   3.970   5.190  10.574  0.4981 -1.1949 -0.4489
  419SOL    HW2 2699   4.100   5.238  10.632 -0.6275  0.1795  1.0041
  420SOL     OW 2700   0.638   3.711  11.697 -0.1665 -0.0689  0.3712
  420SOL    HW1 2701   0.669   3.704  11.788 -0.9871 -0.9283  0.6094
  420SOL    HW2 2702   0.691   3.780  11.658  0.4926  0.0174  1.3890
  421SOL     OW 2703   6.537   7.482   8.895 -0.2682  0.1582  0.5854
  421SOL    HW1 2704   6.453   7.490   8.848 -0.0248  0.4936  0.1962
  421SOL    HW2 2705   6.535   7.395   8.933 -1.6799  0.8920  2.3033
  422SOL     OW 2706   0.586   3.680   2.902  0.3850  0.8015 -0.3368
  422SOL    HW1 2707   0.491   3.669   2.899  0.5438 -0.7123 -0.7797
  422SOL    HW2 2708   0.617   3.647   2.817  1.2712  1.7187 -0.3878
  423SOL     OW 2709   3.248   0.895  11.524 -0.3443  0.1562  0.0479
  423SOL    HW1 2710   3.323   0.892  11.583 -0.8570  1.7278  0.8337
  423SOL    HW2 2711   3.286   0.882  11.437  0.7215  0.0170  0.5163
  424SOL     OW 2712   0.859   0.597   5.756 -0.1415  0.0857 -0.4721
  424SOL    HW1 2713   0.935   0.648   5.727  0.0460 -0.1659 -0.4298
  424SOL    HW2 2714   0.827   0.643   5.833  0.9114 -0.6626  0.4488
  425SOL     OW 2715   3.242   5.982   1.492  0.0157 -0.1725 -0.3961
  425SOL    HW1 2716   3.314   5.972   1.430 -0.5252 -1.0625 -0.9090
  425SOL    HW2 2717   3.260   5.919   1.561 -0.1130 -0.1764 -0.3652
  426SOL     OW 2718   7.703   6.025  11.579 -0.2236 -0.3385  0.5119
  426SOL    HW1 2719   7.758   5.947  11.578 -0.0496 -0.2203  0.9776
  426SOL    HW2 2720   7.738   6.080  11.509  1.8453  0.8395  2.3584
  427SOL     OW 2721   7.353   7.273   9.908 -0.1449  0.0825  0.0170
  427SOL    HW1 2722   7.339   7.329   9.831 -0.7552 -0.4253 -0.2435
  427SOL    HW2 2723   7.310   7.320   9.979  1.0583  0.9291  0.2226
  428SOL     OW 2724   4.045   7.054  10.610 -1.0747 -0.5148  0.3462
  428SOL    HW1 2725   4.132   7.078  10.640 -0.2855 -3.2238  0.5113
  428SOL    HW2 2726   3.993   7.134  10.619  1.1680  0.9615  0.9941
  429SOL     OW 2727   7.420   5.781   5.720 -0.3247 -0.0515 -0.0759
  429SOL    HW1 2728   7.346   5.837   5.742  0.2049 -0.3051  2.8167
  429SOL    HW2 2729   7.392   5.693   5.744  0.4137 -0.3393 -0.2294
  430SOL     OW 2730   0.238   2.694   9.380 -0.4264 -0.0402  0.3361
  430SOL    HW1 2731   0.277   2.630   9.440 -0.4999 -0.8191 -0.4328
  430SOL    HW2 2732   0.172   2.645   9.332 -0.6465  0.6732 -0.1044
  431SOL     OW 2733   2.642   0.407   6.615  0.4679 -0.7559 -0.0560
  431SOL    HW1 2734   2.696   0.405   6.536  0.9161  1.8892  0.1118
  431SOL    HW2 2735   2.703   0.427   6.686 -0.4672  0.8496  0.3445
  432SOL     OW 2736   5.543   3.416   5.271  0.0001  0.4074  0.2574
  432SOL    HW1 2737   5.487   3.472   5.217  0.0320  1.2731  1.1063
  432SOL    HW2 2738   5.551   3.462   5.354  2.0626  0.3537  0.1396
  433SOL     OW 2739   2.597   2.285   0.520 -0.1345 -0.0546 -0.6624
  433SOL    HW1 2740   2.504   2.271   0.536 -0.0872  0.0762 -0.2776
  433SOL    HW2 2741   2.620   2.361   0.573  0.2333 -0.1955 -0.6163
  434SOL     OW 2742   3.583   7.065  11.302 -0.1301 -0.5863 -0.2130
  434SOL    HW1 2743   3.532   7.081  11.223  1.4279 -0.1101 -1.1490
  434SOL    HW2 2744   3.656   7.126  11.297 -0.4998  0.1559  2.1044
  435SOL     OW 2745   0.564   0.836   8.878  0.2597 -0.0920  0.1264
  435SOL    HW1 2746   0.606   0.759   8.840 -2.1633 -0.9918 -0.9078
  435SOL    HW2 2747   0.538   0.889   8.803 -1.0341  0.1027  0.6867
  436SOL     OW 2748   4.457   0.450   2.911 -0.5840  0.1716 -0.2159
  436SOL    HW1 2749   4.542   0.493   2.912 -0.7796  0.5675 -0.4139
  436SOL    HW2 2750   4.475   0.359   2.936 -0.1710  0.3679  0.1995
  437SOL     OW 2751   5.943   0.398   4.934 -0.1981 -0.0751 -0.3434
  437SOL    HW1 2752   5.994   0.471   4.970  0.3022 -0.1944 -0.8044
  437SOL    HW2 2753   5.927   0.422   4.843  0.2953 -0.7087 -0.6064
  438SOL     OW 2754   2.600   3.435   9.817  0.3336  0.0557  0.3738
  438SOL    HW1 2755   2.640   3.521   9.828 -0.7754  0.8096 -1.1435
  438SOL    HW2 2756   2.516   3.453   9.776 -0.2096 -1.7218  0.6301
  439SOL     OW 2757   4.989   0.168   2.798  0.3052 -0.2086  0.0582
  439SOL    HW1 2758   4.959   0.250   2.836  0.0112 -0.4098  0.2582
  439SOL    HW2 2759   4.982   0.104   2.869 -1.7512 -0.9461 -0.7291
  440SOL     OW 2760   5.307   6.822   6.201 -0.4866  0.5124  0.7279
  440SOL    HW1 2761   5.242   6.840   6.133 -0.3012  1.2360  0.7374
  440SOL    HW2 2762   5.284   6.734   6.233 -1.8215  0.9925  1.1434
  441SOL     OW 2763   6.340   6.242   2.706 -0.1344  0.1411 -0.2973
  441SOL    HW1 2764   6.348   6.323   2.656 -0.8390  0.2620 -0.2155
  441SOL    HW2 2765   6.289   6.183   2.650 -0.7269  0.1982  0.1802
  442SOL     OW 2766   7.204   6.262   0.469  0.1771 -0.5808  0.6465
  442SOL    HW1 2767   7.139   6.240   0.535  0.2840 -0.0594  0.9298
  442SOL    HW2 2768   7.159   6.325   0.412  0.4588 -0.1440  0.8996
  443SOL     OW 2769   3.490   3.528   1.969 -0.0659 -0.4542  0.0566
  443SOL    HW1 2770   3.494   3.539   2.064 -0.2088  0.2803 -0.0197
  443SOL    HW2 2771   3.581   3.533   1.940 -0.2144  2.6952 -0.1922
  444SOL     OW 2772   4.194   7.159   6.581 -0.1058 -0.4488 -0.3063
  444SOL    HW1 2773   4.200   7.192   6.671  0.2642 -2.7576  0.5891
  444SOL    HW2 2774   4.100   7.158   6.562 -0.1595  0.4139 -0.1060
  445SOL     OW 2775   6.714   3.388   3.237 -0.3190 -0.0657 -0.0982
  445SOL    HW1 2776   6.647   3.376   3.304 -0.2135 -0.8339 -0.1202
  445SOL    HW2 2777   6.686   3.467   3.189 -2.0413 -1.1802 -1.0475
  446SOL     OW 2778   4.022   0.352   6.636 -0.2676  0.3582 -0.2595
  446SOL    HW1 2779   3.990   0.439   6.661 -0.3535  0.4120 -0.5576
  446SOL    HW2 2780   3.973   0.330   6.556  1.9676  1.3584 -1.9914
  447SOL     OW 2781   2.676   6.695   0.644 -0.2328 -0.0323  0.0195
  447SOL    HW1 2782   2.612   6.639   0.687 -1.2857  0.6602 -0.5875
  447SOL    HW2 2783   2.653   6.691   0.551 -0.9800  2.1442  0.0448
  448SOL     OW 2784   7.283   5.905   9.952 -0.2731  0.0436  0.1186
  448SOL    HW1 2785   7.336   5.832   9.918 -2.6524 -1.3810 -0.8384
  448SOL    HW2 2786   7.290   5.898  10.047 -1.0361 -1.9972  0.0814
  449SOL     OW 2787   2.323   2.818   5.263  0.4859  0.2989  0.1866
  449SOL    HW1 2788   2.381   2.838   5.337  1.2632 -1.9925  0.2768
  449SOL    HW2 2789   2.372   2.847   5.186  0.3370  1.2912  0.4507
  450SOL     OW 2790   3.220   6.284   6.583  0.2935  0.5422 -0.7577
  450SOL    HW1 2791   3.265   6.200   6.587 -0.0274  0.2425 -2.6568
  450SOL    HW2 2792   3.285   6.348   6.613  1.2254 -0.1572 -1.2353
  451SOL     OW 2793   0.505   3.216   1.783  0.3293  0.3021 -0.5338
  451SOL    HW1 2794   0.429   3.198   1.728  0.3738 -0.0365 -0.4889
  451SOL    HW2 2795   0.494   3.159   1.859 -0.4521  1.7713  0.4936
  452SOL     OW 2796   4.338   2.937   5.236 -0.3970  0.7409  0.1359
  452SOL    HW1 2797   4.351   2.854   5.282 -1.8466  0.1913 -0.3820
  452SOL    HW2 2798   4.338   3.002   5.306  2.2846  0.5533  0.4190
  453SOL     OW 2799   1.058   6.823   8.927 -0.1989 -0.5408  0.4420
  453SOL    HW1 2800   1.020   6.746   8.969 -0.5055 -1.5129 -1.5014
  453SOL    HW2 2801   0.990   6.891   8.934 -1.5096 -1.6226 -1.1380
  454SOL     OW 2802   5.052   6.073  11.703 -0.0565  0.0153 -0.1931
  454SOL    HW1 2803   4.971   6.084  11.652 -0.2096 -1.5254 -0.3316
  454SOL    HW2 2804   5.099   6.003  11.658  1.7370  1.3686 -0.5285
  455SOL     OW 2805   7.657   4.114   3.587  0.0073  0.2121  0.4246
  455SOL    HW1 2806   7.650   4.179   3.517 -2.0783 -0.7433 -0.3461
  455SOL    HW2 2807   7.749   4.089   3.588 -0.0955 -0.8099 -3.0457
  456SOL     OW 2808   2.349   7.627   5.502 -0.0386 -0.0244  0.4424
  456SOL    HW1 2809   2.304   7.695   5.553 -0.7560 -0.1328 -0.0364
  456SOL    HW2 2810   2.307   7.546   5.528 -2.3513  0.1409 -2.2409
  457SOL     OW 2811   1.131   5.372   3.197  0.0185 -0.5463 -0.1296
  457SOL    HW1 2812   1.094   5.410   3.118  1.6479 -0.0314 -0.6936
  457SOL    HW2 2813   1.122   5.277   3.185  1.1482 -0.5199 -1.4209
  458SOL     OW 2814   3.200   2.018   4.846 -0.0592 -0.0491  0.2283
  458SOL    HW1 2815   3.111   2.017   4.880 -1.0707  0.4745 -2.2067
  458SOL    HW2 2816   3.203   1.943   4.786  0.0649  1.7234 -2.0967
  459SOL     OW 2817   5.102   6.104   7.801  0.1389 -0.5770 -0.5113
  459SOL    HW1 2818   5.034   6.172   7.800 -0.4565 -1.1542 -0.9564
  459SOL    HW2 2819   5.148   6.116   7.718  0.4660 -0.2986 -0.2898
  460SOL     OW 2820   4.555   6.272   0.083 -0.1058 -0.0172 -0.2967
  460SOL    HW1 2821   4.468   6.282   0.121 -0.5552 -0.1898 -1.2258
  460SOL    HW2 2822   4.587   6.361   0.072 -0.6443  0.1016 -0.9804
  461SOL     OW 2823   2.585   5.903   0.628 -0.1219  1.0476 -0.0702
  461SOL    HW1 2824   2.592   5.938   0.717 -0.2491 -0.5498  0.6154
  461SOL    HW2 2825   2.655   5.837   0.623 -1.1829 -0.0884 -0.5339
  462SOL     OW 2826   1.671   7.572   8.190 -0.0967 -0.4834 -0.6748
  462SOL    HW1 2827   1.757   7.531   8.190  0.6357  0.9988 -0.5376
  462SOL    HW2 2828   1.614   7.508   8.234  1.2206 -0.8647  0.5453
  463SOL     OW 2829   0.442   3.584   1.114  0.0681  0.5550 -0.0886
  463SOL    HW1 2830   0.399   3.667   1.133 -0.5589  0.9591 -2.7703
  463SOL    HW2 2831   0.525   3.608   1.073 -0.1861 -0.0874 -1.0299
  464SOL     OW 2832   5.074   1.443  10.562  0.1353  0.4736 -0.6189
  464SOL    HW1 2833   4.990   1.472  10.599  0.6329  2.9105 -1.2245
  464SOL    HW2 2834   5.052   1.410  10.475 -0.3816 -0.4312 -0.1572
  465SOL     OW 2835   1.969   0.514   1.557 -0.1789  0.1882 -0.0271
  465SOL    HW1 2836   2.053   0.561   1.560  1.4200 -2.4628 -0.3742
  465SOL    HW2 2837   1.975   0.460   1.478 -0.8480 -2.3762  1.5491
  466SOL     OW 2838   1.634   0.283   5.645  0.3689  0.1598  0.4378
  466SOL    HW1 2839   1.602   0.193   5.636  1.4923 -0.3751  1.3944
  466SOL    HW2 2840   1.629   0.300   5.739 -1.8615  1.9235  0.0741
  467SOL     OW 2841   6.739   2.868   9.230  0.5034 -0.2971 -0.1188
  467SOL    HW1 2842   6.654   2.823   9.237 -0.5250  1.5894 -0.0032
  467SOL    HW2 2843   6.748   2.887   9.136  0.4417  0.1542 -0.0341
  468SOL     OW 2844   7.393   3.395  11.068 -0.7701  0.6198  0.4114
  468SOL    HW1 2845   7.336   3.400  10.991 -1.0795  0.4943  0.6290
  468SOL    HW2 2846   7.464   3.456  11.050 -1.4196  1.4119  0.4982
  469SOL     OW 2847   4.200   2.402   7.172  0.1865  0.1952 -0.6397
  469SOL    HW1 2848   4.149   2.336   7.125  0.6482  1.0928 -2.4959
  469SOL    HW2 2849   4.285   2.401   7.128  0.5033  1.3571 -0.0742
  470SOL     OW 2850   0.874   5.374   6.741  0.1902 -0.5802 -0.4952
  470SOL    HW1 2851   0.910   5.286   6.750 -1.3748 -1.2428 -0.3387
  470SOL    HW2 2852   0.893   5.399   6.650  2.2302 -0.3014 -0.0381
  471SOL     OW 2853   0.953   1.137   4.680 -0.0055  0.2526  0.2269
  471SOL    HW1 2854   0.963   1.075   4.607  1.9972 -0.2824  0.8984
  471SOL    HW2 2855   0.982   1.221   4.644 -0.6077  0.3498 -0.0477
  472SOL     OW 2856   6.530   5.161   2.436 -0.3873 -0.1684  0.1401
  472SOL    HW1 2857   6.474   5.238   2.427 -0.8672 -0.4280  0.8095
  472SOL    HW2 2858   6.600   5.174   2.372 -2.1660 -0.6748 -2.0740
  473SOL     OW 2859   5.020   7.098   8.956  0.7808 -0.2713 -0.6987
  473SOL    HW1 2860   5.026   7.003   8.962  2.7826 -0.2762 -1.8444
  473SOL    HW2 2861   4.995   7.115   8.865 -0.0452  0.3165 -0.3787
  474SOL     OW 2862   2.289   1.066   2.226  0.2389  0.2870  0.2493
  474SOL    HW1 2863   2.272   1.159   2.211  1.3366  1.0817  3.1704
  474SOL    HW2 2864   2.378   1.053   2.192 -0.6122 -0.2502 -1.9145
  475SOL     OW 2865   7.428   0.971   0.533  0.7155 -0.0536  0.0511
  475SOL    HW1 2866   7.338   0.967   0.564 -0.4399  2.7262 -2.4113
  475SOL    HW2 2867   7.441   0.890   0.484 -0.6056 -0.3111  0.1141
  476SOL     OW 2868   6.217   5.498   4.026  0.1720  0.0576  0.5368
  476SOL    HW1 2869   6.168   5.580   4.030  0.3038  0.1647  0.0714
  476SOL    HW2 2870   6.190   5.458   3.944  3.3958  1.7772 -1.5745
  477SOL     OW 2871   5.788   0.991   3.871  0.3708 -0.2160 -0.2585
  477SOL    HW1 2872   5.739   0.931   3.927  0.3597 -0.2747 -0.3299
  477SOL    HW2 2873   5.793   1.072   3.921  0.6166 -0.3595 -0.0479
  478SOL     OW 2874   6.754   7.103   6.191 -0.1138 -0.1104 -0.1601
  478SOL    HW1 2875   6.767   7.183   6.242  1.6769 -0.4670  0.0304
  478SOL    HW2 2876   6.763   7.131   6.100 -1.3260  0.1853 -0.2102
  479SOL     OW 2877   1.906   0.565   3.454  0.2666 -0.4378 -0.3386
  479SOL    HW1 2878   1.822   0.604   3.479  0.1202  0.0170 -1.4688
  479SOL    HW2 2879   1.897   0.549   3.360  1.8394  0.6415 -0.7086
  480SOL     OW 2880   0.873   7.662   0.591  0.3937  0.8816  0.0572
  480SOL    HW1 2881   0.888   7.688   0.500  2.9557  1.4100  0.5623
  480SOL    HW2 2882   0.778   7.661   0.600  0.0966  2.4167 -2.1690
  481SOL     OW 2883   2.316   2.630   8.187 -0.2859 -0.1407 -0.5941
  481SOL    HW1 2884   2.236   2.576   8.189  0.2895 -1.0577 -1.3043
  481SOL    HW2 2885   2.383   2.575   8.227  0.1225  0.3958 -0.5344
  482SOL     OW 2886   6.131   4.856   5.265  0.0678 -0.1429  1.0037
  482SOL    HW1 2887   6.187   4.786   5.298  1.7586  1.2354  1.1505
  482SOL    HW2 2888   6.184   4.935   5.270 -1.1958  0.9064 -0.7252
  483SOL     OW 2889   5.537   6.700   8.255 -0.6778  0.6603  0.1351
  483SOL    HW1 2890   5.592   6.668   8.326 -1.4947 -0.1040  0.4372
  483SOL    HW2 2891   5.460   6.736   8.299 -0.5488  1.4872 -0.2980
  484SOL     OW 2892   0.944   7.076   4.464 -0.2816  0.0411 -0.1147
  484SOL    HW1 2893   0.894   7.016   4.519 -0.3027  0.9359  0.8737
  484SOL    HW2 2894   1.035   7.047   4.473 -0.2382  0.4302  0.7168
  485SOL     OW 2895   7.095   0.827   3.167  0.1561  0.3517  0.2536
  485SOL    HW1 2896   7.001   0.813   3.152  0.2419  0.9566 -0.9090
  485SOL    HW2 2897   7.100   0.857   3.258 -0.9277  1.5968 -0.0593
  486SOL     OW 2898   5.854   1.396   7.182 -0.0905  0.1582 -0.5387
  486SOL    HW1 2899   5.775   1.431   7.224 -0.4918  1.0111 -1.9710
  486SOL    HW2 2900   5.921   1.400   7.250 -0.5915  1.9916 -0.1097
  487SOL     OW 2901   2.605   0.773   8.214 -0.2825  0.0107 -0.1548
  487SOL    HW1 2902   2.677   0.826   8.248 -0.5789  0.1329  0.2831
  487SOL    HW2 2903   2.620   0.771   8.120 -1.3102  2.4486 -0.4465
  488SOL     OW 2904   7.063   7.364   7.559 -0.6224 -0.1622 -0.7559
  488SOL    HW1 2905   6.991   7.362   7.623 -0.8379 -0.6553 -1.0069
  488SOL    HW2 2906   7.051   7.446   7.512 -0.9888 -0.2103 -0.7523
  489SOL     OW 2907   4.952   7.214   5.116  0.2836 -0.0866 -0.5598
  489SOL    HW1 2908   4.974   7.121   5.109 -2.0587 -0.5770 -2.6319
  489SOL    HW2 2909   4.857   7.216   5.121  0.3391  2.1688  1.8425
  490SOL     OW 2910   6.691   0.627   5.159 -0.2250 -0.2414  0.6232
  490SOL    HW1 2911   6.619   0.602   5.102 -0.0506  1.0086 -0.1952
  490SOL    HW2 2912   6.759   0.660   5.100  0.6513 -0.5011  1.4396
  491SOL     OW 2913   3.299   1.369   1.405  0.1611 -0.4543 -0.1045
  491SOL    HW1 2914   3.336   1.334   1.325  0.2119  0.6199 -0.5693
  491SOL    HW2 2915   3.336   1.458   1.412 -1.3335  0.1775  0.0830
  492SOL     OW 2916   2.130   1.425   9.275  0.3956 -0.2430  0.0241
  492SOL    HW1 2917   2.159   1.515   9.290 -0.1896  0.0057 -0.2714
  492SOL    HW2 2918   2.040   1.424   9.307  0.7458 -1.0157  1.0179
  493SOL     OW 2919   5.789   3.519   8.897 -0.3821  0.0682 -0.3367
  493SOL    HW1 2920   5.714   3.575   8.916 -0.6944 -0.4098 -0.1314
  493SOL    HW2 2921   5.861   3.558   8.946 -0.8339 -0.2895  0.6540
  494SOL     OW 2922   2.772   0.894  11.064  0.3932  0.2389 -0.2358
  494SOL    HW1 2923   2.782   0.972  11.119  0.6783 -0.0671  0.1455
  494SOL    HW2 2924   2.847   0.839  11.085  0.1927 -0.1462 -0.5045
  495SOL     OW 2925   5.964   7.866   8.658 -0.2959 -0.1664 -0.4187
  495SOL    HW1 2926   6.041   7.812   8.639 -0.5991 -0.5326 -0.6403
  495SOL    HW2 2927   5.972   7.889   8.750 -0.7073 -1.5128 -0.0176
  496SOL     OW 2928   7.910   0.368   8.969 -0.0597  0.2868  0.2461
  496SOL    HW1 2929   7.951   0.296   9.018 -0.3595  0.0490  0.1487
  496SOL    HW2 2930   7.955   0.368   8.885  1.3144  1.4808  0.9386
  497SOL     OW 2931   5.614   3.849   9.146  0.1356 -0.1022  0.4269
  497SOL    HW1 2932   5.572   3.839   9.061  0.8908  0.4573 -0.0267
  497SOL    HW2 2933   5.602   3.941   9.169 -1.3178 -0.5635  1.6194
  498SOL     OW 2934   2.593   2.951   6.078 -0.1453 -0.0940 -0.4974
  498SOL    HW1 2935   2.539   2.888   6.126  0.9988 -0.9130 -0.2572
  498SOL    HW2 2936   2.544   2.968   5.997  0.1546 -2.3392 -1.2044
  499SOL     OW 2937   0.451   5.317  10.847 -0.1547 -0.4614  0.0713
  499SOL    HW1 2938   0.371   5.264  10.851 -0.7579  0.4999  2.0805
  499SOL    HW2 2939   0.493   5.302  10.932  0.2078  1.4009  0.2620
  500SOL     OW 2940   3.783   1.804   2.352 -0.0326 -0.0596  0.2475
  500SOL    HW1 2941   3.725   1.860   2.301 -0.6607 -1.1525 -0.2782
  500SOL    HW2 2942   3.814   1.859   2.424 -1.0399  0.7895  0.0442
  501SOL     OW 2943   2.758   6.935   4.501 -0.0809 -0.0209  0.7452
  501SOL    HW1 2944   2.843   6.894   4.483  0.4994  1.8577 -1.1080
  501SOL    HW2 2945   2.773   7.029   4.491 -2.5530  0.3297 -0.4606
  502SOL     OW 2946   7.785   2.011   5.988 -0.1864 -0.5468 -0.3612
  502SOL    HW1 2947   7.785   2.080   5.922  0.8047 -0.2021 -0.0137
  502SOL    HW2 2948   7.870   1.968   5.980  0.7299  0.6740  1.8695
  503SOL     OW 2949   1.069   4.007   1.994  0.2728  0.2236 -0.6846
  503SOL    HW1 2950   1.056   4.093   1.954  0.3151  1.3051  1.4477
  503SOL    HW2 2951   1.159   4.009   2.026 -0.5178  0.4949  1.7134
  504SOL     OW 2952   3.468   2.409   3.920  0.2012 -0.0484  0.5134
  504SOL    HW1 2953   3.520   2.355   3.980  1.2902  0.7900  0.3601
  504SOL    HW2 2954   3.454   2.354   3.843 -0.6420 -0.8982  1.2561
  505SOL     OW 2955   3.717   2.317   1.865  0.1285 -0.2557  0.2909
  505SOL    HW1 2956   3.690   2.404   1.835  0.7411 -0.5469 -1.1703
  505SOL    HW2 2957   3.645   2.288   1.921 -1.6753 -0.1651 -1.8457
  506SOL     OW 2958   1.887   1.396  10.738  0.3900 -0.1884 -0.4314
  506SOL    HW1 2959   1.935   1.354  10.667 -0.6804 -0.1035 -1.2320
  506SOL    HW2 2960   1.810   1.433  10.696  0.4845  1.1839  0.5199
  507SOL     OW 2961   2.557   4.256  10.976  0.0517  0.1494  0.4707
  507SOL    HW1 2962   2.544   4.350  10.989 -1.5224 -0.0324  0.3579
  507SOL    HW2 2963   2.608   4.228  11.052  0.8711  1.1501  0.3129
  508SOL     OW 2964   2.567   5.557   2.499  0.4421 -0.7343 -0.1995
  508SOL    HW1 2965   2.638   5.596   2.549  0.2730  0.0585 -0.5712
  508SOL    HW2 2966   2.611   5.508   2.430  0.6305 -0.1228 -0.5195
  509SOL     OW 2967   5.991   6.787   0.819 -0.2681 -0.2373 -0.5324
  509SOL    HW1 2968   6.022   6.846   0.751 -0.8613  0.9388  0.1881
  509SOL    HW2 2969   5.933   6.840   0.873  0.4456 -1.0267  1.1025
  510SOL     OW 2970   6.718   3.806  10.564  0.1446 -0.3240  0.6873
  510SOL    HW1 2971   6.764   3.818  10.648  0.1559 -1.1885  0.8064
  510SOL    HW2 2972   6.669   3.725  10.575  1.8402 -1.6468 -0.8943
  511SOL     OW 2973   1.165   5.150  10.842 -0.3046 -0.3570 -0.5466
  511SOL    HW1 2974   1.154   5.195  10.926 -0.0356  2.0990 -1.7361
  511SOL    HW2 2975   1.250   5.107  10.849  0.4384  1.1210 -0.0805
  512SOL     OW 2976   3.622   0.401   3.600  0.4344 -0.3775  0.0255
  512SOL    HW1 2977   3.671   0.363   3.672  1.0463 -0.1900 -0.2903
  512SOL    HW2 2978   3.684   0.458   3.555 -0.1088 -0.0127 -0.2863
  513SOL     OW 2979   6.221   3.703   4.899 -0.1637  0.1309  0.0373
  513SOL    HW1 2980   6.160   3.755   4.847 -2.5750  0.4838  2.9646
  513SOL    HW2 2981   6.174   3.623   4.919  0.4933  0.1458  1.8953
  514SOL     OW 2982   3.501   2.034   4.887 -0.3176  0.5468  0.1131
  514SOL    HW1 2983   3.596   2.049   4.889 -0.3103  0.7196 -1.1882
  514SOL    HW2 2984   3.492   1.940   4.871 -0.3909  0.3119  1.3663
  515SOL     OW 2985   2.477   5.707   3.493 -0.2099  0.3255  0.4230
  515SOL    HW1 2986   2.506   5.638   3.553 -1.1731  0.8083  1.4885
  515SOL    HW2 2987   2.397   5.671   3.453  0.2108  0.1648 -0.2834
  516SOL     OW 2988   2.622   3.106   2.106  0.0703 -0.0657 -0.3457
  516SOL    HW1 2989   2.550   3.125   2.046 -0.7902  0.6693  0.8731
  516SOL    HW2 2990   2.601   3.020   2.142  1.5190 -1.3411 -2.3676
  517SOL     OW 2991   1.789   5.652   9.008 -0.1952  0.0583  0.7779
  517SOL    HW1 2992   1.867   5.604   9.036 -1.4140 -1.7660  1.1995
  517SOL    HW2 2993   1.802   5.667   8.914  0.6004 -0.3038  0.8257
  518SOL     OW 2994   6.008   2.898  12.056  0.0203  0.1757 -0.4782
  518SOL    HW1 2995   6.003   2.928  11.965 -1.1590  1.5152 -0.0198
  518SOL    HW2 2996   6.101   2.894  12.076  0.2944  2.9324 -0.8346
  519SOL     OW 2997   5.220   7.460  11.417 -0.2921 -0.5891 -0.7587
  519SOL    HW1 2998   5.132   7.465  11.379 -1.0652  1.4115  1.0838
  519SOL    HW2 2999   5.277   7.489  11.346 -1.4705  0.9767 -1.1454
  520SOL     OW 3000   5.270   0.531   6.965 -0.2488  0.1312 -0.2359
  520SOL    HW1 3001   5.285   0.450   6.916  0.8412  0.1192  0.1018
  520SOL    HW2 3002   5.181   0.521   6.999 -0.5809 -0.3809 -1.2052
  521SOL     OW 3003   4.449   5.335  11.107 -0.4250 -0.2801 -0.7600
  521SOL    HW1 3004   4.451   5.422  11.148 -1.1300 -0.3410 -0.5858
  521SOL    HW2 3005   4.526   5.290  11.143 -0.3750  0.0760 -0.4108
  522SOL     OW 3006   5.783   6.255   5.628 -0.2646 -0.3332  0.0419
  522SOL    HW1 3007   5.705   6.284   5.582  0.7196  2.3691 -0.1080
  522SOL    HW2 3008   5.784   6.307   5.709  1.5786  0.0551 -0.1825
  523SOL     OW 3009   5.516   3.640  12.204 -0.5617 -0.0187  0.3354
  523SOL    HW1 3010   5.518   3.571  12.270 -0.1661  0.9172  1.3326
  523SOL    HW2 3011   5.548   3.718  12.249  1.1885  0.3200 -1.3580
  524SOL     OW 3012   7.352   3.695  11.103  0.2492 -0.4475  0.3542
  524SOL    HW1 3013   7.329   3.667  11.192 -0.5149  0.8910  0.6062
  524SOL    HW2 3014   7.443   3.667  11.091  0.2423 -0.9656  1.4201
  525SOL     OW 3015   4.214   1.535  11.991  0.1219  0.0646  0.1952
  525SOL    HW1 3016   4.266   1.470  12.040 -0.6389  0.9095  2.2472
  525SOL    HW2 3017   4.123   1.516  12.015 -0.2891  0.5119 -0.9473
  526SOL     OW 3018   1.246   7.576  11.781  0.2672 -0.1318 -0.7003
  526SOL    HW1 3019   1.178   7.548  11.842  0.0419  1.0835 -0.3783
  526SOL    HW2 3020   1.276   7.495  11.740 -0.0458 -0.8906  0.5381
  527SOL     OW 3021   6.748   6.085   6.619  0.0782 -0.4472 -0.7230
  527SOL    HW1 3022   6.703   6.009   6.581 -2.0188  0.0504  0.6022
  527SOL    HW2 3023   6.683   6.155   6.616  1.4894  0.9028 -0.5938
  528SOL     OW 3024   4.808   2.907   6.548  0.1811 -0.8338  0.3618
  528SOL    HW1 3025   4.729   2.855   6.535 -0.2473 -0.2145  0.4532
  528SOL    HW2 3026   4.863   2.852   6.605 -1.2591 -0.2401  2.4589
  529SOL     OW 3027   5.459   2.940   5.348  0.3143  0.2048 -0.0287
  529SOL    HW1 3028   5.410   3.022   5.358  0.6814  0.6016 -1.2752
  529SOL    HW2 3029   5.403   2.873   5.388  0.9364  1.3130  2.9922
  530SOL     OW 3030   1.720   0.105   7.352  0.1362 -0.0068 -0.2438
  530SOL    HW1 3031   1.667   0.162   7.408 -0.1376  2.3057 -2.6587
  530SOL    HW2 3032   1.670   0.099   7.270  1.9190 -0.6868 -1.3474
  531SOL     OW 3033   7.178   7.167   1.602 -0.4540  0.2653  0.1341
  531SOL    HW1 3034   7.112   7.221   1.645 -0.4461  0.0491  0.4142
  531SOL    HW2 3035   7.262   7.203   1.630 -0.4476  0.0439  0.4037
  532SOL     OW 3036   3.888   7.147   2.302  0.2067  0.0872 -0.3896
  532SOL    HW1 3037   3.844   7.222   2.341  1.9127  2.3588 -2.5028
  532SOL    HW2 3038   3.818   7.082   2.289 -1.9075  2.3023 -0.7725
  533SOL     OW 3039   4.020   7.108   5.531 -0.2083  0.3131  0.4056
  533SOL    HW1 3040   4.108   7.127   5.564 -0.7990  0.2553  2.1752
  533SOL    HW2 3041   4.026   7.018   5.497  0.7990  0.9201 -1.1059
  534SOL     OW 3042   4.262   2.119   4.073 -0.5209 -0.6088  0.0020
  534SOL    HW1 3043   4.259   2.035   4.119 -0.4004 -0.6962 -0.1490
  534SOL    HW2 3044   4.250   2.097   3.981  1.0364 -0.6260 -0.2236
  535SOL     OW 3045   2.315   3.459   1.359 -0.6773 -0.1601  0.1400
  535SOL    HW1 3046   2.363   3.462   1.276  0.5470 -0.2172  0.8276
  535SOL    HW2 3047   2.340   3.539   1.405 -0.8233 -0.4473  0.7350
  536SOL     OW 3048   7.078   0.057   3.322 -0.2309  0.2061  0.0639
  536SOL    HW1 3049   7.085   0.060   3.227  0.7126 -0.2296  0.1072
  536SOL    HW2 3050   7.035   0.138   3.346 -1.0429  0.0414 -0.7811
  537SOL     OW 3051   0.100   7.408   4.362 -0.7437  0.1528 -0.2542
  537SOL    HW1 3052   0.192   7.410   4.389 -0.5024  0.7148 -1.0777
  537SOL    HW2 3053   0.062   7.487   4.402 -0.5163  0.6939 -1.0937
  538SOL     OW 3054   3.620   5.963   4.480 -0.3073 -0.5517 -0.2734
  538SOL    HW1 3055   3.641   6.040   4.534 -1.0528 -0.8643  0.4840
  538SOL    HW2 3056   3.562   5.997   4.412 -0.2839 -0.3622 -0.2007
  539SOL     OW 3057   5.661   7.132   9.659 -0.0558 -0.0639 -0.5020
  539SOL    HW1 3058   5.580   7.110   9.613  0.0113 -1.7369  0.1143
  539SOL    HW2 3059   5.670   7.065   9.726  0.8080  1.2612  0.7816
  540SOL     OW 3060   5.175   2.951   6.186  0.2912 -0.3676 -0.1866
  540SOL    HW1 3061   5.182   2.984   6.097  0.0011 -1.4415 -0.6313
  540SOL    HW2 3062   5.121   3.014   6.232 -0.3942 -0.3185 -1.0499
  541SOL     OW 3063   0.229   3.603   6.401  0.1256 -0.2745 -0.1638
  541SOL    HW1 3064   0.296   3.602   6.333 -0.3992  5.0917 -1.1499
  541SOL    HW2 3065   0.275   3.629   6.480 -0.2887  0.2014 -0.0768
  542SOL     OW 3066   5.226   0.798   9.757 -0.4620  0.4258 -0.4192
  542SOL    HW1 3067   5.258   0.718   9.715  0.0740  1.1960 -1.5347
  542SOL    HW2 3068   5.271   0.801   9.841  1.1687  0.6332 -1.2665
  543SOL     OW 3069   7.687   0.592   0.859  0.2248  0.1115 -0.0962
  543SOL    HW1 3070   7.633   0.671   0.860 -1.7837 -1.1570 -1.1762
  543SOL    HW2 3071   7.737   0.599   0.777  0.3885  0.4465  0.0276
  544SOL     OW 3072   0.037   4.595   2.212  0.1142  0.0417  0.1421
  544SOL    HW1 3073   0.090   4.515   2.213 -1.1907 -0.8506 -0.1488
  544SOL    HW2 3074   0.008   4.606   2.302  0.8520  0.5962  0.3254
  545SOL     OW 3075   7.353   1.603   7.993  0.1400 -0.2552  0.2234
  545SOL    HW1 3076   7.405   1.639   8.065 -1.4796  0.4864  1.0886
  545SOL    HW2 3077   7.334   1.678   7.937 -0.5424 -0.3709  0.2869
  546SOL     OW 3078   2.511   7.168   9.676 -0.2618  0.0819  0.2689
  546SOL    HW1 3079   2.524   7.248   9.625  1.1490 -0.6453 -0.5807
  546SOL    HW2 3080   2.541   7.098   9.618 -3.0271 -1.2853  0.3315
  547SOL     OW 3081   2.969   6.382   6.998 -0.1121  0.0903 -0.0086
  547SOL    HW1 3082   2.969   6.345   7.086  0.9181  1.0720  0.4287
  547SOL    HW2 3083   2.882   6.362   6.963 -0.9622  0.7021  1.6675
  548SOL     OW 3084   5.981   5.774   0.093  0.2886  0.0833  0.0855
  548SOL    HW1 3085   6.029   5.716   0.033  0.8641 -1.1106  1.6394
  548SOL    HW2 3086   6.043   5.845   0.113 -0.3140  1.1519 -1.5853
  549SOL     OW 3087   1.362   6.374   5.324  0.9199 -0.3421 -0.0675
  549SOL    HW1 3088   1.365   6.427   5.245  1.9359 -0.9157 -0.4384
  549SOL    HW2 3089   1.433   6.310   5.313 -0.3084 -1.8222  0.3335
  550SOL     OW 3090   4.907   7.557   5.889  0.0432 -0.0231  0.2160
  550SOL    HW1 3091   4.856   7.533   5.967 -0.5739 -0.7446 -0.3871
  550SOL    HW2 3092   4.998   7.540   5.914 -0.2100 -1.0261  0.5269
  551SOL     OW 3093   7.607   5.078   8.583  0.3034 -0.0385  0.4946
  551SOL    HW1 3094   7.653   4.994   8.590 -0.3246 -0.4158  0.1890
  551SOL    HW2 3095   7.522   5.062   8.623  0.9483  1.0749  2.4683
  552SOL     OW 3096   3.870   7.442   3.829  0.0943  0.2902 -0.3598
  552SOL    HW1 3097   3.832   7.434   3.916  1.1766 -1.7085 -0.0159
  552SOL    HW2 3098   3.957   7.479   3.844 -0.2416  1.3006 -0.7716
  553SOL     OW 3099   6.226   6.184   0.785  0.1526  0.0347  0.4387
  553SOL    HW1 3100   6.140   6.186   0.827  0.3672  1.9052  0.8541
  553SOL    HW2 3101   6.276   6.254   0.827  1.0718  0.6177 -1.4885
  554SOL     OW 3102   4.668   2.513  10.403 -0.1826 -0.4062 -0.6436
  554SOL    HW1 3103   4.613   2.547  10.473  1.7624 -0.4008  0.9954
  554SOL    HW2 3104   4.627   2.431  10.376 -0.5631 -0.8234  1.1048
  555SOL     OW 3105   6.815   7.804   8.629  0.2629  0.1177 -0.5869
  555SOL    HW1 3106   6.797   7.750   8.553  1.5544 -0.7830 -0.2845
  555SOL    HW2 3107   6.876   7.871   8.597 -0.9438  1.1238 -0.8449
  556SOL     OW 3108   5.817   5.693  11.707  0.4815  0.1455 -0.0044
  556SOL    HW1 3109   5.803   5.680  11.613 -0.6154 -0.6369  0.2385
  556SOL    HW2 3110   5.752   5.759  11.732  0.7118  0.2872  0.2249
  557SOL     OW 3111   1.203   2.248  10.475 -0.0754 -0.1835 -0.0951
  557SOL    HW1 3112   1.173   2.314  10.538 -2.9792  0.1662 -1.6480
  557SOL    HW2 3113   1.262   2.296  10.417 -0.0588  0.3675  0.3623
  558SOL     OW 3114   1.566   4.937   9.281 -0.3773 -0.2998  0.4133
  558SOL    HW1 3115   1.571   5.010   9.220 -0.4309 -0.2410  0.4801
  558SOL    HW2 3116   1.527   4.974   9.360  0.0662 -0.2875  0.6245
  559SOL     OW 3117   6.703   7.408  10.001  0.2178  0.4958  0.1399
  559SOL    HW1 3118   6.639   7.337   9.997  1.9471 -1.3036  1.9534
  559SOL    HW2 3119   6.737   7.414   9.911  0.4365 -1.4143  0.0421
  560SOL     OW 3120   0.374   6.460   0.396  0.2407  0.1331  0.0126
  560SOL    HW1 3121   0.377   6.385   0.456  2.6256 -0.0242 -0.2040
  560SOL    HW2 3122   0.299   6.443   0.340 -1.5129 -0.1864  2.3054
  561SOL     OW 3123   3.066   1.156   7.292  0.1141  0.5334 -0.1270
  561SOL    HW1 3124   3.039   1.248   7.297  0.0069  0.4373  2.9531
  561SOL    HW2 3125   3.150   1.153   7.339 -0.7407 -1.1871  1.4113
  562SOL     OW 3126   6.247   1.966   4.411  0.0363 -0.1891 -0.3353
  562SOL    HW1 3127   6.253   2.053   4.371 -1.6535 -1.3103 -3.3379
  562SOL    HW2 3128   6.162   1.967   4.456 -0.2244 -0.4454 -0.8201
  563SOL     OW 3129   0.271   5.021   1.982  0.2352  0.0807 -0.1743
  563SOL    HW1 3130   0.180   4.995   1.997 -0.2299  1.9687  0.6791
  563SOL    HW2 3131   0.283   5.014   1.887 -1.0648  0.4864 -0.3950
  564SOL     OW 3132   4.731   2.686   8.699 -0.0640 -0.4523  0.3258
  564SOL    HW1 3133   4.711   2.726   8.783 -0.1243 -1.2648  0.7113
  564SOL    HW2 3134   4.809   2.732   8.668 -0.7561  0.6925  0.2293
  565SOL     OW 3135   4.913   4.730   0.331 -0.1191 -0.2345  0.1281
  565SOL    HW1 3136   4.955   4.726   0.245  0.1925  1.7967  0.1262
  565SOL    HW2 3137   4.982   4.761   0.389 -0.9857  0.8870  0.5889
  566SOL     OW 3138   3.180   0.166   2.949  0.4367 -0.1679  0.2372
  566SOL    HW1 3139   3.175   0.218   2.869  1.0980  2.4029  1.7579
  566SOL    HW2 3140   3.270   0.135   2.952  1.6290  3.0088  1.7651
  567SOL     OW 3141   4.955   7.204  10.565  0.2391 -0.0253 -0.1098
  567SOL    HW1 3142   5.031   7.250  10.602  2.3588 -3.8957  0.8539
  567SOL    HW2 3143   4.963   7.114  10.596 -4.4393 -0.8775 -0.5888
  568SOL     OW 3144   4.531   4.792   2.736 -0.5120 -0.3301  0.1644
  568SOL    HW1 3145   4.483   4.857   2.685  0.8951  0.1878 -0.5689
  568SOL    HW2 3146   4.494   4.798   2.824  1.2623  3.4098  0.8682
  569SOL     OW 3147   5.577   5.377  11.811  0.5689  0.0310  0.5413
  569SOL    HW1 3148   5.617   5.299  11.851  2.6078  0.4972 -0.4654
  569SOL    HW2 3149   5.628   5.393  11.732  0.1328  2.3247  0.6446
  570SOL     OW 3150   5.322   1.993   3.877 -0.0047  0.1980 -0.2118
  570SOL    HW1 3151   5.266   2.013   3.801  0.2591 -2.1208 -1.1121
  570SOL    HW2 3152   5.261   1.974   3.948 -0.3324 -0.1416 -0.5785
  571SOL     OW 3153   6.170   7.104   3.565  0.0149 -0.1685 -0.0937
  571SOL    HW1 3154   6.175   7.089   3.659 -3.1299 -0.3691  0.1466
  571SOL    HW2 3155   6.255   7.142   3.542  0.7732  0.1263  2.8413
  572SOL     OW 3156   3.296   0.313   6.153  0.0698 -0.3402  0.6514
  572SOL    HW1 3157   3.242   0.330   6.075 -0.5956 -0.9813  0.9597
  572SOL    HW2 3158   3.378   0.277   6.118 -0.4608 -1.2047  0.2671
  573SOL     OW 3159   2.418   3.573  10.594  0.2012  0.4071  0.3274
  573SOL    HW1 3160   2.462   3.577  10.678  0.3765 -2.2226  0.4320
  573SOL    HW2 3161   2.489   3.574  10.529  0.3104 -1.1590  0.3915
  574SOL     OW 3162   4.897   3.249   1.044  0.3679  0.3660  0.2008
  574SOL    HW1 3163   4.910   3.306   1.120  0.9366  0.2874  0.1614
  574SOL    HW2 3164   4.964   3.276   0.981 -1.8080  2.3712 -1.4527
  575SOL     OW 3165   4.956   3.493   8.272  0.4015  0.2706 -0.4672
  575SOL    HW1 3166   5.037   3.452   8.303  0.3505  0.4544 -0.0882
  575SOL    HW2 3167   4.889   3.464   8.334  0.0474 -0.4212 -1.1627
  576SOL     OW 3168   6.590   7.747   4.291 -0.1490 -0.0634  0.4753
  576SOL    HW1 3169   6.649   7.687   4.337  0.9522 -1.0570 -2.0213
  576SOL    HW2 3170   6.648   7.812   4.252 -0.8020 -0.2578 -0.8980
  577SOL     OW 3171   4.959   0.746   9.606  0.1363 -0.5542 -0.3882
  577SOL    HW1 3172   4.875   0.724   9.566 -1.0050  1.4441  0.7235
  577SOL    HW2 3173   5.024   0.706   9.549 -1.5112 -0.7170 -2.2653
  578SOL     OW 3174   6.973   7.479   0.893  0.4685  0.1420 -0.1605
  578SOL    HW1 3175   7.038   7.459   0.826  0.5082 -1.2960  0.2795
  578SOL    HW2 3176   7.015   7.543   0.949  2.4984 -2.4425  1.4877
  579SOL     OW 3177   6.067   7.352   6.386 -0.6498  0.5510  0.0413
  579SOL    HW1 3178   6.044   7.397   6.304 -0.7059  0.8090  0.1964
  579SOL    HW2 3179   6.162   7.341   6.381 -0.5564  1.2223  0.2679
  580SOL     OW 3180   4.136   2.364   9.845 -0.3946 -0.0868  0.0734
  580SOL    HW1 3181   4.211   2.309   9.823 -1.4852 -0.9146 -1.8184
  580SOL    HW2 3182   4.060   2.313   9.815 -1.4589  2.4863 -1.8818
  581SOL     OW 3183   3.932   3.119   7.337  0.6686 -0.3102  0.6972
  581SOL    HW1 3184   4.018   3.155   7.356 -0.0047  1.4761  0.5176
  581SOL    HW2 3185   3.940   3.082   7.249  1.1362  0.1953  0.5261
  582SOL     OW 3186   7.000   1.362   2.812 -0.2926  0.5377 -0.1156
  582SOL    HW1 3187   6.964   1.274   2.805  0.2432  0.3274 -0.3103
  582SOL    HW2 3188   6.943   1.416   2.758 -0.3681  0.2266 -0.3504
  583SOL     OW 3189   3.764   6.744   6.696  0.7269  0.1628  0.1009
  583SOL    HW1 3190   3.678   6.735   6.736  1.5306 -1.3567  1.6143
  583SOL    HW2 3191   3.749   6.726   6.603 -0.7506  1.1328  0.1137
  584SOL     OW 3192   6.194   5.684   1.450 -0.1493  0.2577 -0.1919
  584SOL    HW1 3193   6.199   5.673   1.545  0.3590 -0.3890 -0.2899
  584SOL    HW2 3194   6.156   5.603   1.419 -2.3984  1.3137 -0.3616
  585SOL     OW 3195   0.242   2.466   9.200  0.4049 -0.5465 -0.6140
  585SOL    HW1 3196   0.321   2.484   9.252 -0.1934 -1.5975  0.6985
  585SOL    HW2 3197   0.274   2.419   9.123  1.2094  0.2691 -0.7914
  586SOL     OW 3198   1.194   1.335   8.712 -0.1137 -0.2801  0.9180
  586SOL    HW1 3199   1.102   1.329   8.686  0.1412  0.1472 -0.1429
  586SOL    HW2 3200   1.230   1.405   8.657  0.8611 -0.4942  1.2610
  587SOL     OW 3201   1.981   6.692   4.511  0.4900  0.0938  0.7641
  587SOL    HW1 3202   2.052   6.697   4.575  0.8527  0.1431  0.3708
  587SOL    HW2 3203   2.017   6.636   4.441 -0.0099 -0.2085  0.7507
  588SOL     OW 3204   5.860   4.416   5.438  0.9458 -0.5096  0.1097
  588SOL    HW1 3205   5.848   4.486   5.374  0.8840 -0.1671  0.4877
  588SOL    HW2 3206   5.940   4.372   5.411 -0.6884 -2.3969 -2.0517
  589SOL     OW 3207   4.006   3.527   7.735 -0.2205 -0.1316 -0.6578
  589SOL    HW1 3208   4.046   3.613   7.751  0.9441 -0.7902  0.0788
  589SOL    HW2 3209   3.926   3.528   7.787 -0.4770  0.6726 -1.0361
  590SOL     OW 3210   6.565   1.948   5.831  0.1670  0.4924  0.5742
  590SOL    HW1 3211   6.604   1.982   5.751  0.1602 -0.4210  0.1741
  590SOL    HW2 3212   6.516   1.871   5.803  0.7636 -0.2633  1.5642
  591SOL     OW 3213   3.356   7.844   0.053 -0.6038  0.7451 -0.0286
  591SOL    HW1 3214   3.301   7.859  -0.024  0.2001  0.5551 -0.6522
  591SOL    HW2 3215   3.441   7.883   0.030 -0.2070  0.2444  0.5602
  592SOL     OW 3216   7.411   4.360   7.572 -0.3161 -0.1081  0.0410
  592SOL    HW1 3217   7.364   4.421   7.515  0.2639 -0.0859 -0.4180
  592SOL    HW2 3218   7.342   4.304   7.608 -0.5986 -0.7628 -1.4492
  593SOL     OW 3219   7.806   6.621   4.719  0.3934  0.1442 -0.2714
  593SOL    HW1 3220   7.857   6.565   4.660 -0.0590  1.0315 -1.5566
  593SOL    HW2 3221   7.871   6.678   4.760  0.6135  0.2051 -0.6960
  594SOL     OW 3222   0.530   2.077   8.509 -0.3314  0.4601  0.1542
  594SOL    HW1 3223   0.467   2.072   8.438 -0.5781  1.6713  0.2548
  594SOL    HW2 3224   0.480   2.059   8.588 -0.9009  2.6527  0.3753
  595SOL     OW 3225   7.567   3.410   1.807 -0.2035 -0.4933  0.6177
  595SOL    HW1 3226   7.527   3.471   1.744  0.4026 -0.1625  0.5490
  595SOL    HW2 3227   7.493   3.376   1.857 -0.7060 -0.8069 -0.3119
  596SOL     OW 3228   3.016   1.794   3.665 -0.1278 -0.2799 -0.1866
  596SOL    HW1 3229   3.056   1.766   3.747 -0.3564 -2.9374 -0.8887
  596SOL    HW2 3230   2.935   1.744   3.660 -0.2841  0.0896 -1.8658
  597SOL     OW 3231   3.858   6.534   3.971  0.3782 -0.2130 -0.0219
  597SOL    HW1 3232   3.809   6.483   3.907 -1.6623  1.7220 -0.1437
  597SOL    HW2 3233   3.862   6.478   4.049 -0.5835 -1.0949 -0.5863
  598SOL     OW 3234   1.330   7.126   2.243 -0.2200 -0.2985  0.3358
  598SOL    HW1 3235   1.358   7.217   2.232 -0.3078 -0.1658  1.1838
  598SOL    HW2 3236   1.340   7.108   2.336  1.1997 -1.6247 -0.0081
  599SOL     OW 3237   7.110   4.643   5.738  0.5150 -0.3216  0.3036
  599SOL    HW1 3238   7.123   4.727   5.694  0.9339 -1.1114 -1.1319
  599SOL    HW2 3239   7.181   4.639   5.802  0.2835  0.5641  0.6374
  600SOL     OW 3240   2.981   4.597  10.397  0.3856 -0.1526 -0.4405
  600SOL    HW1 3241   2.961   4.505  10.384  0.7505 -0.5163  1.2414
  600SOL    HW2 3242   3.064   4.597  10.446 -0.3714  0.9706  0.9306
  601SOL     OW 3243   2.769   3.477  11.514 -0.4340 -0.3404 -0.2549
  601SOL    HW1 3244   2.698   3.414  11.529  0.3082 -1.0796  0.2698
  601SOL    HW2 3245   2.725   3.562  11.511 -1.1141 -0.5015  2.5137
  602SOL     OW 3246   6.538   2.262   1.718  0.0344  0.1027 -0.2939
  602SOL    HW1 3247   6.577   2.227   1.799  0.9565  0.1773 -0.6995
  602SOL    HW2 3248   6.448   2.283   1.743  0.1996 -0.2116  0.6238
  603SOL     OW 3249   6.464   4.903   7.410 -0.0482 -0.3418  0.1943
  603SOL    HW1 3250   6.439   4.831   7.467 -1.5781  0.3621  0.4515
  603SOL    HW2 3251   6.423   4.882   7.326  0.2178 -0.1974  0.0262
  604SOL     OW 3252   6.519   6.564   7.213 -0.2870 -0.2263 -0.2405
  604SOL    HW1 3253   6.456   6.631   7.239 -1.1983 -1.1758  0.1007
  604SOL    HW2 3254   6.474   6.515   7.144  0.3151 -0.5530 -0.4064
  605SOL     OW 3255   5.150   0.599   1.334  0.0907  0.6221 -0.0462
  605SOL    HW1 3256   5.116   0.665   1.274  2.6903 -0.2462 -2.7369
  605SOL    HW2 3257   5.144   0.516   1.286  0.9657 -0.3609  1.4417
  606SOL     OW 3258   7.207   2.177  10.346  0.5590 -0.0178 -0.0310
  606SOL    HW1 3259   7.228   2.175  10.439  0.6589  0.6563 -0.0367
  606SOL    HW2 3260   7.122   2.222  10.342 -1.1581 -2.9727  0.0358
  607SOL     OW 3261   0.098   2.573  10.575 -0.2792 -0.1487  0.2408
  607SOL    HW1 3262   0.174   2.632  10.580 -0.2902 -0.1028 -0.1045
  607SOL    HW2 3263   0.108   2.527  10.492  0.7692 -2.0911  1.3924
  608SOL     OW 3264   4.217   1.785   1.614 -0.1059  0.0205 -0.5229
  608SOL    HW1 3265   4.291   1.826   1.569  0.2202 -1.3432 -1.2952
  608SOL    HW2 3266   4.257   1.719   1.670 -0.4614  2.0451  2.3009
  609SOL     OW 3267   4.697   0.367  11.712  0.5516  0.7220  0.1489
  609SOL    HW1 3268   4.717   0.439  11.652 -1.7856  0.9219 -0.4930
  609SOL    HW2 3269   4.759   0.298  11.688  1.9702  2.0274 -0.1056
  610SOL     OW 3270   6.821   6.705   0.771 -0.4204 -0.2560  0.4999
  610SOL    HW1 3271   6.891   6.768   0.785 -0.5633 -0.5085  2.7802
  610SOL    HW2 3272   6.766   6.745   0.704  0.6806  1.0038  0.2994
  611SOL     OW 3273   2.202   5.559   5.782  0.2914 -0.0849  0.1536
  611SOL    HW1 3274   2.120   5.522   5.749 -0.0917  0.9655 -0.1254
  611SOL    HW2 3275   2.196   5.653   5.761  0.9096  0.2709  1.4454
  612SOL     OW 3276   1.412   3.102   0.012  0.7989 -0.0968  0.4354
  612SOL    HW1 3277   1.347   3.173   0.011  2.1015  1.1797  1.8116
  612SOL    HW2 3278   1.381   3.041  -0.055 -0.2752  1.8353 -0.9402
  613SOL     OW 3279   7.779   1.861   6.223  0.1820  0.0056 -0.2830
  613SOL    HW1 3280   7.794   1.939   6.170  0.1357 -0.3084 -0.7629
  613SOL    HW2 3281   7.749   1.895   6.307  2.1090  0.5880  0.2057
  614SOL     OW 3282   3.502   1.530   7.257 -0.0635 -0.3275  0.5372
  614SOL    HW1 3283   3.406   1.528   7.251 -0.2667  0.7360  2.4748
  614SOL    HW2 3284   3.526   1.616   7.222  0.3636 -1.1916 -1.3917
  615SOL     OW 3285   5.810   3.020   9.266  0.2121 -0.0439 -0.4406
  615SOL    HW1 3286   5.725   3.062   9.255 -0.2491 -0.1992  1.9085
  615SOL    HW2 3287   5.791   2.943   9.320  1.9059  0.2792  0.6909
  616SOL     OW 3288   3.022   1.444   4.702 -0.8079 -0.0568  0.3769
  616SOL    HW1 3289   3.066   1.514   4.751 -1.4123  1.1451 -0.7189
  616SOL    HW2 3290   3.014   1.372   4.765  0.5402  0.5577  1.3103
  617SOL     OW 3291   3.477   0.178   3.930 -0.4411  0.2154 -0.3573
  617SOL    HW1 3292   3.426   0.238   3.875 -0.6314 -0.2934 -0.7578
  617SOL    HW2 3293   3.521   0.120   3.867 -0.4189 -0.1862  0.0202
  618SOL     OW 3294   0.509   2.517   1.109 -0.0626  0.2028  0.4240
  618SOL    HW1 3295   0.526   2.585   1.175  0.6669 -0.8292  1.3263
  618SOL    HW2 3296   0.432   2.548   1.062 -0.6538  0.9257  1.8188
  619SOL     OW 3297   2.551   0.146   0.205  0.1185  0.4697 -0.0657
  619SOL    HW1 3298   2.556   0.169   0.297 -1.0453  0.4570  0.0210
  619SOL    HW2 3299   2.480   0.081   0.200 -0.5083  1.1982 -1.0784
  620SOL     OW 3300   6.864   2.031   6.114 -0.6118  0.3253  0.2266
  620SOL    HW1 3301   6.887   2.103   6.172 -0.4425 -1.8761  3.1046
  620SOL    HW2 3302   6.768   2.027   6.117 -0.6021  0.1966  0.3356
  621SOL     OW 3303   4.048   7.561  11.012 -0.1136  0.0204  0.1734
  621SOL    HW1 3304   3.969   7.546  10.960  0.2095  0.7425 -0.5474
  621SOL    HW2 3305   4.087   7.474  11.022  0.8566  0.0335 -2.5039
  622SOL     OW 3306   3.725   6.712  11.351 -0.1897 -0.2306  0.4524
  622SOL    HW1 3307   3.809   6.693  11.394  1.5319  0.1752 -2.4787
  622SOL    HW2 3308   3.716   6.644  11.285 -1.8149  0.1819  0.2218
  623SOL     OW 3309   3.445   1.721  11.132  0.2376 -0.5784 -0.2750
  623SOL    HW1 3310   3.350   1.733  11.122  0.1949 -1.7082 -1.3411
  623SOL    HW2 3311   3.482   1.805  11.104 -0.4395 -0.0316  0.3942
  624SOL     OW 3312   3.886   2.423   6.972  0.1826  0.3515  0.3025
  624SOL    HW1 3313   3.944   2.496   6.992 -0.4156  0.8683  0.1982
  624SOL    HW2 3314   3.799   2.453   6.999 -0.0880 -0.2866  0.1729
  625SOL     OW 3315   6.001   6.632   1.305  0.1187 -0.5069  0.3394
  625SOL    HW1 3316   5.993   6.693   1.378 -1.0525  1.6544 -1.4799
  625SOL    HW2 3317   5.931   6.657   1.245  0.6462 -2.6029 -1.2785
  626SOL     OW 3318   3.956   5.292   2.656 -0.0089 -0.5459 -0.2682
  626SOL    HW1 3319   3.883   5.238   2.625  0.9507 -1.0809 -1.6723
  626SOL    HW2 3320   4.013   5.301   2.580  1.2501  0.1274  0.7259
  627SOL     OW 3321   1.048   1.309   1.514 -0.1634  0.4037  0.4002
  627SOL    HW1 3322   0.995   1.385   1.538 -3.3498 -1.7071  0.5917
  627SOL    HW2 3323   1.062   1.262   1.597  0.0844 -0.2107  0.0173
  628SOL     OW 3324   6.729   2.427   6.710  0.1524  0.4325  0.1089
  628SOL    HW1 3325   6.646   2.458   6.747 -1.5241 -1.2774 -1.9226
  628SOL    HW2 3326   6.703   2.366   6.641  3.1374 -0.0099 -0.7766
  629SOL     OW 3327   4.509   4.989   2.206  0.7938  0.6823  0.4164
  629SOL    HW1 3328   4.560   4.950   2.135  1.0659  0.7883  0.5493
  629SOL    HW2 3329   4.546   5.076   2.216 -0.5208  1.3827 -0.5965
  630SOL     OW 3330   6.359   7.260   3.424 -0.4134  0.7062  0.2783
  630SOL    HW1 3331   6.289   7.292   3.368 -0.6745  1.1002  0.8239
  630SOL    HW2 3332   6.429   7.325   3.416 -0.0221  0.2098 -0.4252
  631SOL     OW 3333   5.374   0.268   9.610  0.0949  0.7602  0.1318
  631SOL    HW1 3334   5.358   0.221   9.692 -0.3469  1.6604  0.5858
  631SOL    HW2 3335   5.455   0.231   9.576 -1.3067 -1.7994 -0.6489
  632SOL     OW 3336   6.283   7.041  10.371 -0.2979  0.1158 -0.1725
  632SOL    HW1 3337   6.333   6.975  10.322  0.7387 -0.5836  1.7125
  632SOL    HW2 3338   6.218   6.991  10.419 -0.0016  0.5436  0.6867
  633SOL     OW 3339   0.707   6.438   0.587  0.0645 -0.1547 -0.6199
  633SOL    HW1 3340   0.690   6.349   0.555 -1.3646 -0.1291  0.0013
  633SOL    HW2 3341   0.802   6.445   0.587  0.1862 -1.3891 -1.4806
  634SOL     OW 3342   5.649   3.915   1.191 -0.5022  0.2737  0.1503
  634SOL    HW1 3343   5.650   4.001   1.233  0.2956  0.1283  0.4452
  634SOL    HW2 3344   5.740   3.887   1.192 -0.8212 -0.7832  0.4837
  635SOL     OW 3345   0.357   1.071   7.112 -0.0024  0.0367  0.4096
  635SOL    HW1 3346   0.352   1.165   7.131 -0.8223  0.2559 -0.7736
  635SOL    HW2 3347   0.447   1.047   7.135 -0.5217  0.5037  3.2464
  636SOL     OW 3348   6.941   7.617   7.449 -0.3050 -0.6956  0.0262
  636SOL    HW1 3349   6.862   7.638   7.499  0.1701 -1.4221  1.1131
  636SOL    HW2 3350   6.909   7.571   7.372 -1.0773  0.7438 -0.5627
  637SOL     OW 3351   6.752   7.631   7.672 -0.1797 -0.5740  0.1802
  637SOL    HW1 3352   6.691   7.703   7.688 -0.7799 -0.9369 -0.4051
  637SOL    HW2 3353   6.794   7.616   7.756  1.0273  1.4033  0.0162
  638SOL     OW 3354   0.682   5.118   5.675 -0.2858  0.1008 -0.1431
  638SOL    HW1 3355   0.649   5.135   5.763 -0.0897  2.9125 -0.5031
  638SOL    HW2 3356   0.776   5.106   5.685 -0.1269  1.3172 -0.0115
  639SOL     OW 3357   0.309   6.852   2.756 -0.2726  0.1254  0.0227
  639SOL    HW1 3358   0.334   6.760   2.747 -0.9656 -0.1017  0.3079
  639SOL    HW2 3359   0.385   6.895   2.794  0.7478  0.0463 -1.8217
  640SOL     OW 3360   6.083   3.547   1.655 -0.0175  0.2705  1.0507
  640SOL    HW1 3361   6.127   3.630   1.673  1.2746 -0.0068 -0.5624
  640SOL    HW2 3362   6.003   3.572   1.608  0.6228  0.5946  0.1208
  641SOL     OW 3363   5.890   4.833   4.106 -0.0618  0.0117 -0.2599
  641SOL    HW1 3364   5.959   4.788   4.058 -1.6080 -1.1010 -1.5387
  641SOL    HW2 3365   5.822   4.767   4.118 -1.5219  1.4431 -0.3470
  642SOL     OW 3366   4.630   4.185  10.619  0.0541  0.1973  0.3438
  642SOL    HW1 3367   4.624   4.260  10.678 -1.4312 -0.2732  0.8308
  642SOL    HW2 3368   4.670   4.220  10.539  0.3965  1.2443  0.9643
  643SOL     OW 3369   6.151   4.376   2.893 -0.2180  0.6489 -0.5666
  643SOL    HW1 3370   6.162   4.319   2.817  0.6937 -1.3370  0.9779
  643SOL    HW2 3371   6.162   4.465   2.858 -1.7243 -0.0421 -3.0586
  644SOL     OW 3372   3.977   6.643   0.254 -0.2279  0.2117 -0.1421
  644SOL    HW1 3373   4.007   6.559   0.289 -0.6986  0.7801  1.7747
  644SOL    HW2 3374   3.889   6.626   0.220 -0.6059  0.0420  0.8763
  645SOL     OW 3375   1.858   5.309   3.427  0.2425  0.2860 -0.2227
  645SOL    HW1 3376   1.929   5.263   3.470 -0.8438 -1.5203 -0.2825
  645SOL    HW2 3377   1.828   5.373   3.492  1.0085  0.1208  0.3033
  646SOL     OW 3378   0.918   1.884   5.221 -0.0487 -0.5492  0.3718
  646SOL    HW1 3379   0.963   1.874   5.137  0.3359 -0.5912  0.5773
  646SOL    HW2 3380   0.905   1.978   5.230  1.1008 -0.4134  0.8604
  647SOL     OW 3381   5.120   3.971   3.832  0.1700 -0.0613 -0.4060
  647SOL    HW1 3382   5.183   3.936   3.896  0.3685  1.4934  0.2870
  647SOL    HW2 3383   5.114   3.903   3.765  3.0255 -0.0531 -0.7839
  648SOL     OW 3384   3.178   2.922   6.153 -0.3793  0.1279  0.4404
  648SOL    HW1 3385   3.174   2.902   6.060 -0.8674  0.2900  0.4181
  648SOL    HW2 3386   3.265   2.959   6.167 -0.3251  0.1513  0.0371
  649SOL     OW 3387   0.514   4.166   5.062 -0.1721 -0.1208  0.2321
  649SOL    HW1 3388   0.569   4.124   4.996 -0.0369 -0.0397  0.2933
  649SOL    HW2 3389   0.426   4.166   5.023 -0.0696  0.0490 -0.0072
  650SOL     OW 3390   0.962   6.654   0.680  0.1528  0.0214 -0.7181
  650SOL    HW1 3391   0.964   6.726   0.618 -0.6380  1.1025  0.4698
  650SOL    HW2 3392   0.897   6.679   0.745 -1.2401 -2.4172 -1.0312
  651SOL     OW 3393   5.116   1.797   4.319  0.1388  0.0444 -0.8654
  651SOL    HW1 3394   5.131   1.706   4.294 -0.9298  0.1358 -1.9121
  651SOL    HW2 3395   5.029   1.818   4.285 -0.5569  0.8161  1.2336
  652SOL     OW 3396   5.491   2.521   2.261 -0.7253  0.4164 -0.0730
  652SOL    HW1 3397   5.528   2.607   2.245 -0.9699  0.8945  1.7157
  652SOL    HW2 3398   5.451   2.528   2.348 -0.0015 -1.7342  0.4998
  653SOL     OW 3399   2.675   4.146   5.307 -0.0428 -0.1442 -0.5394
  653SOL    HW1 3400   2.613   4.075   5.324 -2.0607  1.9000  1.4921
  653SOL    HW2 3401   2.660   4.170   5.216 -0.7889 -1.0368 -0.6695
  654SOL     OW 3402   2.254   6.817   0.051 -0.7043 -0.0068 -0.8864
  654SOL    HW1 3403   2.227   6.909   0.042  2.0638  0.8201 -1.8304
  654SOL    HW2 3404   2.349   6.822   0.068 -0.7737 -2.6660  0.8518
  655SOL     OW 3405   4.204   4.498  10.203  0.6013 -0.6470 -0.3069
  655SOL    HW1 3406   4.132   4.440  10.226 -0.4015  1.4806  2.6037
  655SOL    HW2 3407   4.282   4.442  10.202 -0.4945 -2.2779  1.0178
  656SOL     OW 3408   0.419   2.269   1.299  0.3988 -0.1800 -0.4807
  656SOL    HW1 3409   0.343   2.232   1.254 -0.8931  0.8637  0.7151
  656SOL    HW2 3410   0.453   2.336   1.239 -0.0080 -0.2377 -0.7798
  657SOL     OW 3411   3.628   1.726   5.530  0.1582 -0.9461 -0.5580
  657SOL    HW1 3412   3.571   1.657   5.496 -0.8931  0.1220 -1.0309
  657SOL    HW2 3413   3.607   1.730   5.623  1.9847 -2.8699  0.0356
  658SOL     OW 3414   3.430   4.115  10.829  0.5135 -0.4697  0.0835
  658SOL    HW1 3415   3.507   4.170  10.844  0.8126 -1.3192  1.9487
  658SOL    HW2 3416   3.399   4.093  10.917 -1.6787 -0.4291 -0.6231
  659SOL     OW 3417   5.757   2.596   0.265  0.0044  0.2786  0.0740
  659SOL    HW1 3418   5.822   2.549   0.213 -1.2527 -0.2736 -1.0706
  659SOL    HW2 3419   5.807   2.660   0.315  1.6277 -1.3150  0.6213
  660SOL     OW 3420   5.590   7.856  10.232 -0.1018 -0.0252  0.1473
  660SOL    HW1 3421   5.661   7.844  10.168 -0.6055 -1.2582 -0.2065
  660SOL    HW2 3422   5.549   7.770  10.238 -0.2796  0.1513  1.9062
  661SOL     OW 3423   4.321   2.911  10.252 -0.0815  0.2250  0.1913
  661SOL    HW1 3424   4.321   2.865  10.168 -1.1317 -0.7699  0.6927
  661SOL    HW2 3425   4.396   2.875  10.299 -1.1348 -1.3781  0.7389
  662SOL     OW 3426   0.941   6.534   7.885  0.2364 -0.8311  0.0917
  662SOL    HW1 3427   0.895   6.535   7.801 -0.4752  0.0202  0.4822
  662SOL    HW2 3428   1.015   6.474   7.871  0.3364 -0.4195 -1.2433
  663SOL     OW 3429   5.964   2.038   6.821  0.3351 -0.2699 -0.4945
  663SOL    HW1 3430   5.905   1.965   6.803  1.7908 -1.2626 -1.3872
  663SOL    HW2 3431   6.014   2.010   6.898 -0.0462  0.3872  0.0024
  664SOL     OW 3432   6.029   4.641   8.003 -0.0689  0.2250  0.6090
  664SOL    HW1 3433   6.070   4.562   8.037  0.6484 -0.4963 -1.6883
  664SOL    HW2 3434   5.953   4.610   7.954 -0.4875  1.0709  0.7052
  665SOL     OW 3435   0.561   5.323   1.679 -0.0234  0.1343  0.0629
  665SOL    HW1 3436   0.646   5.311   1.636 -0.8057 -0.7313 -1.3217
  665SOL    HW2 3437   0.555   5.250   1.740  0.4862  0.5530  0.6224
  666SOL     OW 3438   0.162   5.790   6.390  0.2653 -0.3049  0.9438
  666SOL    HW1 3439   0.098   5.783   6.319 -0.5943  1.2368  1.5225
  666SOL    HW2 3440   0.113   5.768   6.469  1.1086 -1.5763  1.1384
  667SOL     OW 3441   2.637   3.231   3.856  0.0021  0.6183  0.4734
  667SOL    HW1 3442   2.593   3.314   3.840 -0.2389  0.2665 -0.8588
  667SOL    HW2 3443   2.612   3.176   3.781  0.0782 -0.6853  1.3637
  668SOL     OW 3444   3.740   5.261   7.221 -0.7241  0.6848 -1.1800
  668SOL    HW1 3445   3.823   5.306   7.207 -0.5824  0.1562 -2.1345
  668SOL    HW2 3446   3.750   5.178   7.175 -1.0950 -0.2021  0.2621
  669SOL     OW 3447   4.401   4.920   0.510 -0.6317  0.2311  0.3212
  669SOL    HW1 3448   4.413   4.826   0.496 -3.1943  0.0984 -1.6886
  669SOL    HW2 3449   4.346   4.926   0.588  2.1811  0.3374  2.4663
  670SOL     OW 3450   2.723   7.351   4.951  0.3903  0.6890  0.4494
  670SOL    HW1 3451   2.750   7.281   4.892 -0.7009  0.7409 -0.1330
  670SOL    HW2 3452   2.732   7.431   4.899  0.7530  0.8874  0.8110
  671SOL     OW 3453   0.761   1.206   0.040  0.1699  0.4330  0.5103
  671SOL    HW1 3454   0.854   1.185   0.028  0.1427  0.9664 -0.8079
  671SOL    HW2 3455   0.747   1.201   0.134  1.5334  0.3143  0.7237
  672SOL     OW 3456   3.079   0.337  11.892  0.0201  0.0218  0.1986
  672SOL    HW1 3457   3.048   0.313  11.979  1.3755  0.3889  0.8098
  672SOL    HW2 3458   3.037   0.275  11.833  0.3772 -1.3088  1.3047
  673SOL     OW 3459   1.667   6.910   4.878  0.1919 -0.1360  0.0672
  673SOL    HW1 3460   1.740   6.925   4.938 -0.0106 -0.3671  0.3756
  673SOL    HW2 3461   1.707   6.864   4.804  0.4607  0.2334 -0.0201
  674SOL     OW 3462   5.592   2.995  11.794 -0.3029 -0.0146  0.1363
  674SOL    HW1 3463   5.608   2.902  11.804 -0.7604 -0.1048  0.0664
  674SOL    HW2 3464   5.510   3.011  11.840 -0.2401  0.3479  0.1310
  675SOL     OW 3465   1.628   5.202   5.103 -0.2015  0.1925  0.1434
  675SOL    HW1 3466   1.550   5.229   5.152 -0.1916  0.6904 -0.1044
  675SOL    HW2 3467   1.683   5.159   5.168  0.4918  2.1678  0.9668
  676SOL     OW 3468   1.644   5.377   5.981  0.3701 -0.0753 -0.5686
  676SOL    HW1 3469   1.619   5.465   6.012  2.2596  0.1062  0.6229
  676SOL    HW2 3470   1.574   5.320   6.011 -1.0983  1.0652 -1.7197
  677SOL     OW 3471   6.418   2.891  12.159 -0.2165 -0.4088 -0.6263
  677SOL    HW1 3472   6.465   2.942  12.225 -2.5398  0.5657  0.3844
  677SOL    HW2 3473   6.429   2.800  12.187 -0.3422 -0.0709  0.5671
  678SOL     OW 3474   4.662   0.972   6.542  0.0179  0.4823  0.3698
  678SOL    HW1 3475   4.587   0.921   6.574  0.5847 -1.2177 -0.8644
  678SOL    HW2 3476   4.726   0.967   6.612  0.5313 -1.6011 -0.1777
  679SOL     OW 3477   4.052   5.737   0.103  0.0375  0.3617 -0.6337
  679SOL    HW1 3478   3.972   5.728   0.155  0.6477  1.0773  0.4508
  679SOL    HW2 3479   4.067   5.831   0.097  0.0054  0.3004 -2.0994
  680SOL     OW 3480   0.446   2.547   7.988  0.4257 -0.0587  1.1282
  680SOL    HW1 3481   0.394   2.492   7.929 -0.0150  0.3259  1.1543
  680SOL    HW2 3482   0.476   2.620   7.934  1.0559 -0.3418  1.0817
  681SOL     OW 3483   1.971   5.246   3.928  0.1856  0.5944 -0.2620
  681SOL    HW1 3484   2.005   5.255   3.839  0.6028 -0.8727 -0.2825
  681SOL    HW2 3485   1.959   5.335   3.958  3.1427  1.2098 -0.6028
  682SOL     OW 3486   2.676   5.780   9.493 -0.0424 -0.1195 -0.2345
  682SOL    HW1 3487   2.662   5.702   9.546 -1.2961 -0.4025 -0.9268
  682SOL    HW2 3488   2.639   5.758   9.408  1.9810  0.3007 -1.2812
  683SOL     OW 3489   4.328   0.086   6.235  0.6478  0.1838 -0.0677
  683SOL    HW1 3490   4.394   0.066   6.169 -0.3283 -0.4053 -0.8929
  683SOL    HW2 3491   4.321   0.006   6.287  1.6116  0.7335  0.9713
  684SOL     OW 3492   0.297   3.697   2.576 -0.4259  0.8075  0.0037
  684SOL    HW1 3493   0.303   3.683   2.482  0.2835 -0.2950  0.1871
  684SOL    HW2 3494   0.363   3.763   2.595 -0.5415  1.0020 -0.2688
  685SOL     OW 3495   3.275   6.506   4.675 -0.6929  0.2997 -0.5022
  685SOL    HW1 3496   3.245   6.583   4.724 -2.4592 -0.6028 -0.1306
  685SOL    HW2 3497   3.237   6.431   4.720 -0.2870 -0.7191 -1.7879
  686SOL     OW 3498   2.012   4.069   9.610  0.1114  0.0589 -0.1416
  686SOL    HW1 3499   2.067   3.992   9.611  0.2835  0.1473 -1.1405
  686SOL    HW2 3500   2.067   4.138   9.573 -0.2573  0.4839  0.0788
  687SOL     OW 3501   2.676   2.784   3.452 -0.1245 -0.3314 -0.4630
  687SOL    HW1 3502   2.616   2.849   3.415  0.4441  0.4335 -0.0514
  687SOL    HW2 3503   2.683   2.717   3.384 -1.5010 -0.4732 -0.4842
  688SOL     OW 3504   7.734   7.288   9.954 -0.0986  0.3433  0.0044
  688SOL    HW1 3505   7.763   7.216  10.010  2.2881  0.7724 -0.5561
  688SOL    HW2 3506   7.691   7.349  10.013  1.6025  0.3859  1.2838
  689SOL     OW 3507   6.085   3.648   0.922 -0.4173 -0.2432 -0.0756
  689SOL    HW1 3508   6.046   3.612   1.001  0.3794  0.4235  0.6357
  689SOL    HW2 3509   6.169   3.683   0.950  0.1047 -0.4435 -1.3137
  690SOL     OW 3510   0.666   6.087  11.448 -0.1761 -0.7762  0.1214
  690SOL    HW1 3511   0.737   6.151  11.460 -1.7103  1.0048  0.2287
  690SOL    HW2 3512   0.642   6.097  11.356  0.4199 -2.1957 -0.2117
  691SOL     OW 3513   5.170   7.545   2.831 -0.3869 -0.5753 -0.1337
  691SOL    HW1 3514   5.125   7.629   2.831  1.2961  0.3774 -1.0174
  691SOL    HW2 3515   5.101   7.481   2.848 -1.5769  1.0195  1.4476
  692SOL     OW 3516   0.092   3.347  10.833  0.0969  0.1963  0.1289
  692SOL    HW1 3517   0.087   3.405  10.756  0.7255 -0.3278 -0.3119
  692SOL    HW2 3518   0.184   3.345  10.856 -0.0130 -0.1141  0.5516
  693SOL     OW 3519   7.530   0.740   9.046 -0.2082  0.2298 -0.2783
  693SOL    HW1 3520   7.591   0.666   9.038 -0.4746  0.2141 -3.1255
  693SOL    HW2 3521   7.481   0.739   8.964 -2.3360  1.7714  0.8838
  694SOL     OW 3522   6.228   0.801   6.303  0.1641  0.1726 -0.1710
  694SOL    HW1 3523   6.291   0.763   6.242  1.6491  2.5681 -0.2534
  694SOL    HW2 3524   6.144   0.794   6.257  0.5963 -1.5537 -0.7863
  695SOL     OW 3525   4.547   1.453   2.319  0.1654  0.3345  0.1131
  695SOL    HW1 3526   4.557   1.428   2.227  1.8269  1.1650  0.0203
  695SOL    HW2 3527   4.586   1.541   2.323  2.5039 -0.6738  2.0532
  696SOL     OW 3528   3.008   0.346   3.255 -0.3697 -0.2129 -0.4519
  696SOL    HW1 3529   3.028   0.256   3.231  2.4503  0.8515 -2.6992
  696SOL    HW2 3530   2.939   0.339   3.320  1.9347 -4.1160  1.9389
  697SOL     OW 3531   3.076   2.358   7.016  0.2158  0.3033 -0.2028
  697SOL    HW1 3532   3.018   2.361   7.092 -1.3635  1.1752 -1.4002
  697SOL    HW2 3533   3.046   2.428   6.959  2.8745  1.2339 -0.6125
  698SOL     OW 3534   5.335   7.217   5.469 -0.0884  0.3056  0.1474
  698SOL    HW1 3535   5.367   7.157   5.536 -0.4055 -0.9754 -0.8065
  698SOL    HW2 3536   5.240   7.205   5.469 -0.0716  0.0843 -0.6991
  699SOL     OW 3537   2.896   5.494  10.061 -0.4758 -0.0356 -0.2031
  699SOL    HW1 3538   2.917   5.494  10.154 -1.1757 -1.1397 -0.0262
  699SOL    HW2 3539   2.800   5.492  10.057 -0.4561 -0.0384 -0.9485
  700SOL     OW 3540   2.876   3.561   5.868 -0.2796 -0.2894  0.2898
  700SOL    HW1 3541   2.896   3.550   5.961 -0.4347  0.6795  0.4505
  700SOL    HW2 3542   2.958   3.542   5.823 -0.1816 -0.6776  0.6256
  701SOL     OW 3543   3.082   0.547  10.350  0.3803  0.0159  0.4977
  701SOL    HW1 3544   3.105   0.504  10.268  2.1558 -0.8359  1.3759
  701SOL    HW2 3545   3.082   0.476  10.415 -2.3535  0.4216  1.0532
  702SOL     OW 3546   7.755   6.319   0.574  0.4468 -0.6863 -0.8327
  702SOL    HW1 3547   7.679   6.361   0.534 -0.8760  0.0625  2.2231
  702SOL    HW2 3548   7.828   6.378   0.554 -0.7818  1.4178  0.5177
  703SOL     OW 3549   2.906   6.546   5.368 -0.0102 -0.2029 -0.1912
  703SOL    HW1 3550   2.944   6.490   5.300  1.1102 -0.9028  0.9829
  703SOL    HW2 3551   2.848   6.488   5.417  0.3384 -0.0752  0.3776
  704SOL     OW 3552   1.220   4.537   8.959 -0.0657  0.5395 -0.2343
  704SOL    HW1 3553   1.160   4.609   8.980 -0.0393 -0.0640  2.1953
  704SOL    HW2 3554   1.307   4.574   8.968 -0.0343  0.0409  1.9393
  705SOL     OW 3555   6.030   1.445  12.370  0.1727 -0.5954  0.5812
  705SOL    HW1 3556   6.088   1.465  12.297  1.6661 -4.0398  0.6437
  705SOL    HW2 3557   5.951   1.409  12.329  0.1203 -0.5146  0.6106
  706SOL     OW 3558   5.677   1.433  11.402  0.4252 -0.9021 -0.0897
  706SOL    HW1 3559   5.736   1.418  11.476  1.5055  0.9700 -0.5165
  706SOL    HW2 3560   5.595   1.392  11.428  1.5539 -2.6167  0.9917
  707SOL     OW 3561   1.668   3.144   1.006 -0.0546  0.6820 -0.2676
  707SOL    HW1 3562   1.682   3.193   1.087  1.8722  1.6472 -1.1054
  707SOL    HW2 3563   1.587   3.179   0.970 -0.8945  0.2973  1.1659
  708SOL     OW 3564   7.781   5.678   3.783  0.2626  0.0614  0.5039
  708SOL    HW1 3565   7.835   5.667   3.705 -0.5471 -1.4251  0.1045
  708SOL    HW2 3566   7.842   5.664   3.856  0.4699 -1.6070  0.0645
  709SOL     OW 3567   4.093   7.000   9.243 -0.5197  0.0843 -0.2468
  709SOL    HW1 3568   4.068   7.091   9.255 -3.2454 -0.4573 -0.9763
  709SOL    HW2 3569   4.055   6.955   9.320  0.9883 -0.4276  0.2291
  710SOL     OW 3570   4.414   2.403   5.332 -0.7243  0.2796  0.1278
  710SOL    HW1 3571   4.450   2.356   5.257 -0.1694 -0.1876  0.6767
  710SOL    HW2 3572   4.461   2.368   5.407 -1.5436  0.4685  0.7448
  711SOL     OW 3573   3.398   7.064   7.897  0.6103 -0.0275 -0.2683
  711SOL    HW1 3574   3.360   7.053   7.984  0.3558  0.6125 -0.2957
  711SOL    HW2 3575   3.323   7.058   7.837  0.6512  0.4958 -0.3753
  712SOL     OW 3576   2.690   0.221   4.889 -0.0287  0.3442  0.1888
  712SOL    HW1 3577   2.685   0.281   4.814 -0.8998  0.7298  0.5511
  712SOL    HW2 3578   2.779   0.234   4.923 -0.1498  1.3326  0.1678
  713SOL     OW 3579   1.840   3.713  10.483 -0.4252  0.1754 -0.4223
  713SOL    HW1 3580   1.752   3.675  10.472  0.2280 -1.3504 -0.6227
  713SOL    HW2 3581   1.824   3.806  10.498 -2.0375  0.1008 -1.4252
  714SOL     OW 3582   6.637   7.358   3.071  0.1842  0.3219 -0.0575
  714SOL    HW1 3583   6.652   7.452   3.061 -0.3810  0.5321  0.9597
  714SOL    HW2 3584   6.545   7.346   3.045  0.1705  0.0931  0.0986
  715SOL     OW 3585   2.648   0.202   5.603 -0.4126  0.1651 -0.6111
  715SOL    HW1 3586   2.682   0.117   5.629 -1.1099  0.4459  1.3692
  715SOL    HW2 3587   2.702   0.266   5.650 -1.4323  0.7159 -0.1536
  716SOL     OW 3588   4.450   6.335   4.076  0.1848  0.4209 -0.6219
  716SOL    HW1 3589   4.532   6.339   4.028  0.5014 -0.9470 -0.2136
  716SOL    HW2 3590   4.467   6.278   4.150 -1.2317 -0.2094 -0.7365
  717SOL     OW 3591   1.659   7.221  11.393  0.1872 -0.6513 -0.0044
  717SOL    HW1 3592   1.731   7.215  11.456  0.0681 -0.9642  0.1040
  717SOL    HW2 3593   1.595   7.158  11.424  0.9665 -2.2888 -1.5175
  718SOL     OW 3594   4.699   0.026   3.036 -0.5633  0.1173  0.1208
  718SOL    HW1 3595   4.791   0.018   3.060 -0.6669 -0.3052  0.3982
  718SOL    HW2 3596   4.695  -0.004   2.945 -0.5071 -0.3820  0.2791
  719SOL     OW 3597   7.065   2.950   5.802  0.2677 -0.4709 -0.6201
  719SOL    HW1 3598   7.041   2.956   5.894 -1.2180 -0.4484 -0.9899
  719SOL    HW2 3599   6.982   2.952   5.755  0.9490 -1.3605 -1.9240
  720SOL     OW 3600   6.618   4.169  10.200  0.1930 -0.5443  0.1134
  720SOL    HW1 3601   6.653   4.147  10.286  3.9505  0.7312 -0.8714
  720SOL    HW2 3602   6.577   4.255  10.211 -1.4737 -1.4032  1.0041
  721SOL     OW 3603   0.950   6.019   9.362 -0.4290  0.0648  0.7383
  721SOL    HW1 3604   0.953   5.937   9.312 -0.2211  0.2126  0.5032
  721SOL    HW2 3605   1.042   6.046   9.369 -0.5194  0.4477  0.5243
  722SOL     OW 3606   2.364   6.093   9.308 -1.1148 -0.2655 -0.4966
  722SOL    HW1 3607   2.418   6.055   9.377 -1.7713  0.1319  0.2561
  722SOL    HW2 3608   2.426   6.120   9.240 -0.4143 -0.2386  0.1399
  723SOL     OW 3609   6.594   3.537   7.948 -0.2987  0.4046 -0.2003
  723SOL    HW1 3610   6.514   3.589   7.933 -0.9948 -1.1151 -2.2860
  723SOL    HW2 3611   6.562   3.451   7.975  0.7306  0.2380  0.5259
  724SOL     OW 3612   2.585   0.653   4.875 -0.7188 -0.3686 -0.2453
  724SOL    HW1 3613   2.558   0.742   4.852 -0.5168  0.0869  1.2263
  724SOL    HW2 3614   2.670   0.663   4.918 -0.3974 -1.3424 -0.6094
  725SOL     OW 3615   0.842   5.063   4.263  0.7107  0.2003  0.0667
  725SOL    HW1 3616   0.927   5.019   4.254  0.9497  0.9115 -1.4520
  725SOL    HW2 3617   0.864   5.149   4.298  0.9556  1.3075 -2.5793
  726SOL     OW 3618   5.771   4.902  10.088 -0.5728 -0.7042  0.1476
  726SOL    HW1 3619   5.704   4.970  10.085  0.3176  0.1520 -1.6044
  726SOL    HW2 3620   5.854   4.950  10.083  0.1004 -1.8672 -0.1607
  727SOL     OW 3621   6.225   2.208   0.146 -0.4254  0.1778  0.0161
  727SOL    HW1 3622   6.137   2.224   0.181 -1.0351  1.2868 -1.9102
  727SOL    HW2 3623   6.214   2.206   0.051  1.5057 -0.5773 -0.2440
  728SOL     OW 3624   6.685   7.783   0.377  0.2418  0.0255 -0.2484
  728SOL    HW1 3625   6.668   7.842   0.451  0.7422  0.7491 -0.6976
  728SOL    HW2 3626   6.765   7.817   0.337 -0.1666 -0.2089 -1.2841
  729SOL     OW 3627   6.891   5.071   2.064  0.4220 -0.0251  0.4397
  729SOL    HW1 3628   6.893   5.068   2.159 -1.1784 -0.3903  0.4804
  729SOL    HW2 3629   6.860   4.985   2.038 -0.8639  0.6519 -0.3367
  730SOL     OW 3630   3.233   2.815   6.543  0.2645 -0.3113  0.5221
  730SOL    HW1 3631   3.280   2.855   6.470 -0.5519  1.1788  0.7696
  730SOL    HW2 3632   3.141   2.817   6.516  0.1848 -2.2597  0.4662
  731SOL     OW 3633   3.666   6.089  11.775 -0.7318  0.4797  0.5078
  731SOL    HW1 3634   3.739   6.103  11.714 -0.6501  0.2983  0.5643
  731SOL    HW2 3635   3.619   6.173  11.775 -1.3785  0.1425 -0.6519
  732SOL     OW 3636   3.157   5.481   2.179  0.1626 -0.4188 -0.5111
  732SOL    HW1 3637   3.077   5.451   2.137 -0.7771  0.4149  0.6072
  732SOL    HW2 3638   3.161   5.433   2.262 -0.2108  0.8933  0.2997
  733SOL     OW 3639   7.578   4.039   2.949  0.7199  0.1769  0.3316
  733SOL    HW1 3640   7.657   3.995   2.915 -0.2368 -0.5076 -1.1346
  733SOL    HW2 3641   7.565   4.113   2.890  0.6642  0.6980  0.9989
  734SOL     OW 3642   5.096   3.800   8.779  0.2113  0.0953  0.0506
  734SOL    HW1 3643   5.029   3.734   8.763  0.2568  0.1348 -0.3159
  734SOL    HW2 3644   5.062   3.880   8.738  1.1925 -0.2842 -1.5703
  735SOL     OW 3645   4.879   2.481   8.081  0.1826  0.2603 -0.5473
  735SOL    HW1 3646   4.799   2.503   8.128  1.1933  0.1496  1.3452
  735SOL    HW2 3647   4.906   2.396   8.118  0.2752 -0.5493 -2.3816
  736SOL     OW 3648   7.620   0.131   4.331 -0.0819  0.2014  0.2962
  736SOL    HW1 3649   7.547   0.075   4.306  0.5933 -0.4567 -0.2660
  736SOL    HW2 3650   7.605   0.213   4.283 -0.5918  0.1741  0.4039
  737SOL     OW 3651   4.780   1.082   1.190  0.4521 -0.0840 -0.3241
  737SOL    HW1 3652   4.808   1.105   1.101 -1.4308 -0.4463 -1.0789
  737SOL    HW2 3653   4.689   1.114   1.194  0.5363 -0.0103  1.5098
  738SOL     OW 3654   1.084   0.560   5.486 -0.0654  0.2322  0.3676
  738SOL    HW1 3655   1.042   0.627   5.432  2.2501  1.1092 -0.4716
  738SOL    HW2 3656   1.011   0.510   5.523 -1.8058  0.3185 -2.6165
  739SOL     OW 3657   0.398   3.059   4.554 -0.2132  0.6544  0.0348
  739SOL    HW1 3658   0.463   3.003   4.595 -3.0615  0.0548  4.4045
  739SOL    HW2 3659   0.362   3.007   4.483  1.0767 -0.7385  0.3622
  740SOL     OW 3660   2.068   3.546   5.738 -0.1613  0.1283  0.0256
  740SOL    HW1 3661   2.154   3.526   5.702 -0.4820 -1.3184  0.0031
  740SOL    HW2 3662   2.073   3.519   5.829  0.1508  2.3281  0.7333
  741SOL     OW 3663   7.180   7.781   2.974 -0.1923  0.0022 -0.3671
  741SOL    HW1 3664   7.222   7.861   3.004  0.1346  0.0385 -0.9040
  741SOL    HW2 3665   7.222   7.711   3.024 -1.5598  0.2771  1.2415
  742SOL     OW 3666   6.074   4.366   2.031 -0.1632  0.2677  0.2761
  742SOL    HW1 3667   6.144   4.302   2.021 -0.2588  0.3071 -0.7918
  742SOL    HW2 3668   6.070   4.411   1.946 -0.9722  0.7856  0.5707
  743SOL     OW 3669   5.041   5.131   4.510 -0.4430  0.5381 -0.2806
  743SOL    HW1 3670   5.029   5.203   4.449 -2.9861  0.2265 -0.2490
  743SOL    HW2 3671   4.966   5.073   4.495 -0.4518 -0.2316  2.1921
  744SOL     OW 3672   0.103   1.857   5.949 -0.3527  0.0104  0.3469
  744SOL    HW1 3673   0.086   1.813   6.032  0.9498 -1.3263 -0.0574
  744SOL    HW2 3674   0.118   1.786   5.887  1.2925  0.9890 -0.4390
  745SOL     OW 3675   1.866   6.968   5.969 -0.2909 -0.3652 -0.3823
  745SOL    HW1 3676   1.897   6.972   5.879 -1.7787  1.3837 -0.8696
  745SOL    HW2 3677   1.894   7.050   6.008 -1.7093 -0.0449  0.0138
  746SOL     OW 3678   0.960   5.259   5.436  0.2491 -0.0728 -0.5880
  746SOL    HW1 3679   1.035   5.200   5.426  0.0722 -1.1547  3.0716
  746SOL    HW2 3680   0.884   5.202   5.435  0.1597 -0.4686  4.6649
  747SOL     OW 3681   0.318   4.879   4.261  0.0191  0.2080  0.5658
  747SOL    HW1 3682   0.287   4.963   4.228 -1.4659 -0.3457  0.4635
  747SOL    HW2 3683   0.371   4.900   4.338  0.4574  1.2774 -0.0184
  748SOL     OW 3684   4.654   3.153   5.152  0.9942 -0.1846  0.0588
  748SOL    HW1 3685   4.677   3.125   5.241 -2.3067  0.7844  1.4130
  748SOL    HW2 3686   4.705   3.233   5.138  1.1383 -0.0140  1.3780
  749SOL     OW 3687   6.137   4.169  10.149  0.1169 -0.0052 -0.2859
  749SOL    HW1 3688   6.048   4.206  10.148 -0.3831 -0.9142  2.3037
  749SOL    HW2 3689   6.124   4.076  10.166  1.5786 -0.1084  0.3714
  750SOL     OW 3690   5.404   5.073   5.719 -0.1017 -0.1627  0.5186
  750SOL    HW1 3691   5.438   4.988   5.690 -0.6447 -0.7019  1.3946
  750SOL    HW2 3692   5.327   5.050   5.771 -0.5277  0.9066  0.3688
  751SOL     OW 3693   7.135   4.130  10.297  0.2642 -0.2699 -0.1890
  751SOL    HW1 3694   7.101   4.096  10.380  0.5079 -2.7920 -1.0171
  751SOL    HW2 3695   7.087   4.211  10.283 -2.6940 -1.7260  0.5570
  752SOL     OW 3696   6.728   4.755   8.811 -0.1012  0.1743  0.0260
  752SOL    HW1 3697   6.804   4.712   8.772 -0.1925 -0.1523  0.2054
  752SOL    HW2 3698   6.747   4.759   8.904  0.3218  1.3800 -0.0970
  753SOL     OW 3699   2.427   4.852  10.040  0.5909 -0.1595  0.1214
  753SOL    HW1 3700   2.349   4.835  10.092 -0.1917 -0.9256 -1.2547
  753SOL    HW2 3701   2.490   4.785  10.067  0.0680 -0.7666 -0.1359
  754SOL     OW 3702   6.255   7.615   2.702 -0.2262 -0.4752  0.8931
  754SOL    HW1 3703   6.196   7.622   2.777 -1.3684 -0.7122  0.0463
  754SOL    HW2 3704   6.258   7.522   2.683  1.7477 -0.6783  1.9052
  755SOL     OW 3705   3.987   7.696  11.343 -0.1853  0.2241  0.6474
  755SOL    HW1 3706   3.901   7.655  11.354  0.0915 -0.3555  0.6964
  755SOL    HW2 3707   3.968   7.780  11.300 -0.6458 -0.5654 -0.7677
  756SOL     OW 3708   5.587   6.680   5.468 -0.0037  0.0885  0.3186
  756SOL    HW1 3709   5.570   6.622   5.543  0.7183 -1.2766 -0.5245
  756SOL    HW2 3710   5.529   6.647   5.399  2.3989 -1.5808 -1.0778
  757SOL     OW 3711   4.252   0.679  11.152 -0.5065  0.0945 -0.1987
  757SOL    HW1 3712   4.273   0.646  11.064  0.8240  1.4250 -0.4250
  757SOL    HW2 3713   4.184   0.621  11.184  0.6275 -1.8563 -1.1736
  758SOL     OW 3714   7.453   1.243   3.912 -0.7371 -0.1260  0.8039
  758SOL    HW1 3715   7.478   1.333   3.892  1.1370 -0.9652 -0.9131
  758SOL    HW2 3716   7.360   1.248   3.935 -1.0044  2.0672 -0.5353
  759SOL     OW 3717   5.539   6.676   1.981  0.4499 -0.1988 -0.0905
  759SOL    HW1 3718   5.515   6.602   2.036  0.3394 -0.1820 -0.1164
  759SOL    HW2 3719   5.591   6.733   2.038 -1.4135  0.8624  0.6389
  760SOL     OW 3720   6.156   3.164   0.157  0.3663 -0.2188 -0.4173
  760SOL    HW1 3721   6.067   3.131   0.165  0.3621 -0.1348 -0.1113
  760SOL    HW2 3722   6.174   3.161   0.063  0.4816 -1.3847 -0.3687
  761SOL     OW 3723   1.450   4.657   9.083  0.1877  0.0910 -0.4691
  761SOL    HW1 3724   1.528   4.682   9.034  1.3653 -0.9345  0.7752
  761SOL    HW2 3725   1.417   4.739   9.120  0.9043  0.4797 -0.6812
  762SOL     OW 3726   4.739   1.515   0.286  0.3693 -0.0826 -0.0160
  762SOL    HW1 3727   4.693   1.432   0.300 -0.2650  0.3385  0.4754
  762SOL    HW2 3728   4.677   1.569   0.238 -0.4058  1.1139  2.1754
  763SOL     OW 3729   5.556   0.239   4.031  0.1173  0.0819 -0.2726
  763SOL    HW1 3730   5.640   0.199   4.052  0.2205  0.3453 -0.1867
  763SOL    HW2 3731   5.540   0.302   4.101  0.4459  0.9288 -0.9404
  764SOL     OW 3732   0.849   2.481   8.837 -0.1748  0.7640 -0.1925
  764SOL    HW1 3733   0.776   2.452   8.782 -0.0474  2.4711 -1.3284
  764SOL    HW2 3734   0.837   2.576   8.845  0.9091  0.8194  1.1385
  765SOL     OW 3735   6.558   3.524   1.351  0.7498  0.1520  0.2839
  765SOL    HW1 3736   6.544   3.615   1.324  1.3208  0.5426  1.2264
  765SOL    HW2 3737   6.641   3.527   1.399  1.0037 -0.9550 -0.0666
  766SOL     OW 3738   4.395   6.607   2.321 -0.6179  0.2041  0.1093
  766SOL    HW1 3739   4.376   6.513   2.315  1.0111 -0.1279 -0.3989
  766SOL    HW2 3740   4.479   6.612   2.366 -0.5545  1.4195 -0.1017
  767SOL     OW 3741   1.647   2.180   8.120  0.3116  0.6233  0.2621
  767SOL    HW1 3742   1.592   2.230   8.059 -0.8325  0.4687  1.1227
  767SOL    HW2 3743   1.584   2.134   8.176  1.3185  1.0884  1.8303
  768SOL     OW 3744   0.212   7.794   3.389  0.5674 -0.2097  0.6405
  768SOL    HW1 3745   0.215   7.888   3.375  2.5244 -0.4041 -0.5843
  768SOL    HW2 3746   0.303   7.768   3.405  0.0729 -1.8943  0.9812
  769SOL     OW 3747   5.944   2.727   3.624 -0.4115 -0.4981  0.1494
  769SOL    HW1 3748   5.858   2.718   3.666 -1.0747 -1.4225 -1.3138
  769SOL    HW2 3749   5.924   2.743   3.532  0.9705 -1.3863 -0.3431
  770SOL     OW 3750   4.702   0.098  11.113 -0.3013  0.6955 -0.2039
  770SOL    HW1 3751   4.787   0.121  11.075  0.0361  0.3892  0.3592
  770SOL    HW2 3752   4.711   0.007  11.139 -0.9672  0.5167 -0.5837
  771SOL     OW 3753   5.036   2.067   1.734 -0.4331  0.7912  0.1235
  771SOL    HW1 3754   5.127   2.080   1.707 -0.9902  1.4027 -1.5429
  771SOL    HW2 3755   5.001   2.004   1.671 -1.1461  0.4632  0.8270
  772SOL     OW 3756   3.731   5.383   4.338 -0.0165 -0.3194  0.0545
  772SOL    HW1 3757   3.767   5.453   4.392  1.3124 -1.2636  0.4567
  772SOL    HW2 3758   3.807   5.349   4.290 -0.4542 -1.9925  0.4694
  773SOL     OW 3759   1.004   3.892   9.805 -0.1136  0.1314  0.0721
  773SOL    HW1 3760   1.048   3.808   9.821 -0.9683 -0.2187  0.6186
  773SOL    HW2 3761   0.919   3.869   9.769 -0.9582  0.6891  1.6234
  774SOL     OW 3762   6.881   0.128   9.082  0.3558 -0.5016  0.1494
  774SOL    HW1 3763   6.825   0.206   9.083 -0.8130 -1.2568 -1.6351
  774SOL    HW2 3764   6.826   0.058   9.115 -0.0867 -1.3851 -2.2451
  775SOL     OW 3765   4.810   7.431   3.866 -0.4728  0.4098  0.3294
  775SOL    HW1 3766   4.840   7.370   3.933  0.6804  0.5001 -0.0819
  775SOL    HW2 3767   4.744   7.484   3.910 -0.7276 -0.4379  0.9912
  776SOL     OW 3768   1.385   6.272  11.601 -0.2019 -0.2341 -0.1014
  776SOL    HW1 3769   1.447   6.243  11.535  1.6176  0.3762  1.2756
  776SOL    HW2 3770   1.385   6.204  11.667  0.7367  0.7711  0.9831
  777SOL     OW 3771   2.386   5.584   7.271 -0.3658  0.1758  0.1089
  777SOL    HW1 3772   2.348   5.547   7.351 -2.4294 -2.0056 -1.7182
  777SOL    HW2 3773   2.329   5.658   7.249 -1.2468 -0.6447 -0.4927
  778SOL     OW 3774   1.129   4.054   0.319 -0.4549  0.0849 -0.2562
  778SOL    HW1 3775   1.108   4.141   0.354 -0.6930 -0.4331  0.9318
  778SOL    HW2 3776   1.221   4.042   0.340 -0.3981  0.0838 -0.5044
  779SOL     OW 3777   0.750   2.446  12.299 -0.2555 -0.1397 -0.2576
  779SOL    HW1 3778   0.775   2.406  12.216  0.1279 -0.7865  0.1557
  779SOL    HW2 3779   0.794   2.393  12.365  0.2132  0.9315  0.3218
  780SOL     OW 3780   3.407   0.447   7.856 -0.2666 -0.0823  0.1671
  780SOL    HW1 3781   3.381   0.397   7.778 -1.4801  1.1454 -0.2776
  780SOL    HW2 3782   3.333   0.506   7.871  1.0063  1.4257  0.7778
  781SOL     OW 3783   7.797   7.800   6.130  0.1166 -0.3454  1.1264
  781SOL    HW1 3784   7.885   7.803   6.167 -0.5045 -0.1757  2.6734
  781SOL    HW2 3785   7.741   7.774   6.204 -1.0763 -0.9060  0.0695
  782SOL     OW 3786   6.813   5.512  12.384  0.1987 -0.4414 -0.2171
  782SOL    HW1 3787   6.882   5.578  12.395  0.9336 -1.1237 -0.6081
  782SOL    HW2 3788   6.763   5.542  12.308  0.7032 -0.4797 -0.5666
  783SOL     OW 3789   4.250   4.304   2.504 -0.3660  0.6025 -0.1426
  783SOL    HW1 3790   4.339   4.338   2.505 -0.3233  0.5114 -0.6000
  783SOL    HW2 3791   4.210   4.337   2.585  0.1634  0.4177  0.1987
  784SOL     OW 3792   2.436   3.751   6.468 -0.6553  0.3430 -0.3923
  784SOL    HW1 3793   2.438   3.659   6.494 -1.3931 -0.1306 -1.8935
  784SOL    HW2 3794   2.526   3.781   6.480  0.0891 -1.1571 -1.7966
  785SOL     OW 3795   5.269   5.129   0.297 -0.0379 -1.0675 -0.3065
  785SOL    HW1 3796   5.232   5.186   0.364 -0.7033 -1.6359 -0.1661
  785SOL    HW2 3797   5.243   5.041   0.325  1.0353 -1.4458 -0.4686
  786SOL     OW 3798   4.131   7.551  12.105 -0.0388  0.3391 -0.1637
  786SOL    HW1 3799   4.052   7.570  12.054  1.2493  0.2476 -2.3013
  786SOL    HW2 3800   4.120   7.460  12.132 -0.7639  0.3974 -0.2363
  787SOL     OW 3801   7.831   3.388  10.019  0.1880  0.1087  0.2471
  787SOL    HW1 3802   7.836   3.376  10.114 -0.9515  1.0040  0.4506
  787SOL    HW2 3803   7.793   3.475  10.008  0.1132 -0.0632 -1.0292
  788SOL     OW 3804   2.364   5.610   3.203  0.3142 -0.5517 -0.1366
  788SOL    HW1 3805   2.390   5.699   3.178 -2.3814  0.6334  0.7825
  788SOL    HW2 3806   2.443   5.558   3.193  2.0259  1.9479 -0.7109
  789SOL     OW 3807   4.878   0.703  10.865 -0.7748  0.0688 -0.0985
  789SOL    HW1 3808   4.911   0.619  10.895 -2.1810 -0.2542  0.6099
  789SOL    HW2 3809   4.953   0.744  10.821  0.3936 -0.8557  0.9540
  790SOL     OW 3810   7.356   6.318   3.769  0.1793  0.4841 -0.6787
  790SOL    HW1 3811   7.418   6.293   3.701  0.0623  1.5981 -1.2122
  790SOL    HW2 3812   7.350   6.413   3.763 -1.1815  0.4523 -0.2978
  791SOL     OW 3813   5.660   2.091   8.430 -0.6511  0.1803 -0.2755
  791SOL    HW1 3814   5.719   2.023   8.462 -0.2990  0.3054 -0.6503
  791SOL    HW2 3815   5.695   2.115   8.344 -0.5143  1.1429  0.0365
  792SOL     OW 3816   3.452   3.757   7.099 -0.1048 -0.1660 -0.0282
  792SOL    HW1 3817   3.466   3.665   7.076 -1.5949 -0.0855 -1.4021
  792SOL    HW2 3818   3.440   3.801   7.015 -2.0269  0.8159  0.7141
  793SOL     OW 3819   5.957   6.998   0.078  0.2005 -0.1241 -0.1670
  793SOL    HW1 3820   6.010   6.953   0.144  0.8454 -0.0405 -0.6182
  793SOL    HW2 3821   5.866   6.982   0.105  0.4194 -1.3886 -0.1093
  794SOL     OW 3822   2.482   3.075   8.330 -0.2335  0.3922  0.0472
  794SOL    HW1 3823   2.551   3.118   8.381  0.0819 -0.4913  0.3845
  794SOL    HW2 3824   2.408   3.067   8.390 -0.0044 -0.2749  0.2470
  795SOL     OW 3825   1.549   0.461  11.806  0.1377  0.5734  0.2757
  795SOL    HW1 3826   1.638   0.446  11.776 -0.4108 -1.4005 -0.5110
  795SOL    HW2 3827   1.497   0.465  11.726 -0.4368  2.2890  0.6907
  796SOL     OW 3828   2.445   3.024   9.451 -0.5990  0.1423 -0.5826
  796SOL    HW1 3829   2.462   2.937   9.489 -0.5660  1.3172  2.3177
  796SOL    HW2 3830   2.372   3.009   9.391 -0.3235 -1.9597 -0.4916
  797SOL     OW 3831   2.357   5.496   6.976  0.0510  0.3564 -0.6971
  797SOL    HW1 3832   2.422   5.521   7.042 -0.5635 -1.6660  0.7728
  797SOL    HW2 3833   2.407   5.455   6.906  0.4516 -0.7412  0.1986
  798SOL     OW 3834   7.218   1.400   1.063  0.9457  0.1626  0.0551
  798SOL    HW1 3835   7.142   1.392   1.006  2.9695  0.7810 -2.9685
  798SOL    HW2 3836   7.184   1.381   1.151 -2.5236 -0.1076 -1.1825
  799SOL     OW 3837   0.289   1.104   1.762 -0.0929  0.1834 -0.1740
  799SOL    HW1 3838   0.366   1.060   1.799 -1.6357 -1.2100  1.5952
  799SOL    HW2 3839   0.261   1.047   1.691 -0.3755 -0.1388  0.1922
  800SOL     OW 3840   1.455   5.070   9.968  0.0910 -0.6618 -0.2953
  800SOL    HW1 3841   1.368   5.041   9.942 -1.0294  1.1806  1.1433
  800SOL    HW2 3842   1.484   5.128   9.898 -0.7104  0.2734  0.1303
  801SOL     OW 3843   5.374   4.112   0.123 -0.0850  0.0391 -0.5458
  801SOL    HW1 3844   5.384   4.025   0.162 -0.8265  0.8193  1.5730
  801SOL    HW2 3845   5.386   4.098   0.029  1.7188 -2.0168 -0.0950
  802SOL     OW 3846   7.660   3.030   5.168 -0.1428  0.9944 -0.1050
  802SOL    HW1 3847   7.732   2.995   5.115 -0.5057 -0.5571  0.3795
  802SOL    HW2 3848   7.653   3.122   5.141  0.9242  0.7366 -1.3568
  803SOL     OW 3849   3.445   1.321   3.796  0.8803 -0.7944  0.2160
  803SOL    HW1 3850   3.512   1.358   3.738  0.5924 -0.8610 -0.1660
  803SOL    HW2 3851   3.435   1.385   3.866 -1.2881  1.0618 -1.6244
  804SOL     OW 3852   6.887   4.407  10.800  0.0417 -0.5213 -0.6263
  804SOL    HW1 3853   6.836   4.488  10.799  0.5974 -0.1475  0.1517
  804SOL    HW2 3854   6.887   4.378  10.709 -0.2479  0.2964 -0.9001
  805SOL     OW 3855   1.618   4.773   1.139  0.1603 -0.0153 -0.1732
  805SOL    HW1 3856   1.678   4.702   1.117  0.7373  0.0378  1.1213
  805SOL    HW2 3857   1.674   4.851   1.148 -0.2424  0.2630 -0.0058
  806SOL     OW 3858   3.300   2.317   1.313 -0.3951 -0.2009 -0.0821
  806SOL    HW1 3859   3.372   2.377   1.333 -0.5003 -0.4047  0.9800
  806SOL    HW2 3860   3.236   2.372   1.268  0.2263  0.0840 -0.6369
  807SOL     OW 3861   7.731   5.451   5.736  0.1968  0.9466 -0.2089
  807SOL    HW1 3862   7.815   5.404   5.742  0.4390  1.0539 -2.0937
  807SOL    HW2 3863   7.754   5.535   5.698 -0.8511  0.6795 -1.4713
  808SOL     OW 3864   0.176   7.155   1.423  0.1511 -0.3514  0.5167
  808SOL    HW1 3865   0.241   7.224   1.436  0.7020 -0.9070  0.7234
  808SOL    HW2 3866   0.105   7.177   1.484 -0.8428  1.4232 -1.1707
  809SOL     OW 3867   3.482   3.242   5.986 -0.2072  0.1583 -0.4380
  809SOL    HW1 3868   3.541   3.305   5.946 -1.4811  1.3314 -0.5561
  809SOL    HW2 3869   3.484   3.166   5.927 -0.6054  1.1168 -1.7351
  810SOL     OW 3870   1.519   3.259   1.988  0.3111  0.2660  0.0490
  810SOL    HW1 3871   1.535   3.177   1.940  0.9272 -0.0651  0.8110
  810SOL    HW2 3872   1.475   3.232   2.068 -1.9242  0.9355 -0.8640
  811SOL     OW 3873   7.649   3.998   4.363  0.0780 -0.0357 -0.6289
  811SOL    HW1 3874   7.634   4.020   4.272  0.5547 -0.4273 -0.8116
  811SOL    HW2 3875   7.567   4.019   4.408 -0.2741 -0.1650 -1.2081
  812SOL     OW 3876   2.425   4.579   7.024 -0.5959 -0.4459 -0.5226
  812SOL    HW1 3877   2.421   4.518   6.950  0.1195 -0.2634 -0.7212
  812SOL    HW2 3878   2.511   4.564   7.063 -1.0218 -0.6363  0.3662
  813SOL     OW 3879   0.142   2.330  11.258  0.1233  0.0182  0.5088
  813SOL    HW1 3880   0.134   2.368  11.345  2.6475  0.0060  0.8184
  813SOL    HW2 3881   0.189   2.397  11.207  0.7217 -0.9006 -0.1816
  814SOL     OW 3882   3.249   3.030   4.724 -0.7363  0.4131 -0.2425
  814SOL    HW1 3883   3.264   3.123   4.742 -2.6052  0.4565  1.4969
  814SOL    HW2 3884   3.175   3.030   4.664 -1.5150  0.0687  0.6907
  815SOL     OW 3885   1.942   4.295   0.009 -0.3306  0.2664 -0.5146
  815SOL    HW1 3886   1.990   4.320  -0.070 -0.6811  0.6846 -0.5945
  815SOL    HW2 3887   2.002   4.238   0.056  0.1930  0.6755 -0.6821
  816SOL     OW 3888   4.368   6.781   3.153  0.4787 -0.1416  0.1046
  816SOL    HW1 3889   4.460   6.794   3.131  0.3864  2.5850  0.9676
  816SOL    HW2 3890   4.369   6.736   3.237  0.9639 -1.0012 -0.3426
  817SOL     OW 3891   0.799   6.047   7.925 -0.3159  0.4039 -0.5745
  817SOL    HW1 3892   0.879   6.030   7.975  0.4443  0.7085 -1.6425
  817SOL    HW2 3893   0.748   5.966   7.934  1.1458 -0.7105 -1.7228
  818SOL     OW 3894   7.113   3.937   3.072  0.1729  0.1640  0.3290
  818SOL    HW1 3895   7.062   3.953   3.151  0.7610 -0.8002  0.9148
  818SOL    HW2 3896   7.164   4.017   3.060 -0.7594  0.7676  0.2583
  819SOL     OW 3897   1.302   0.138  10.289 -0.7020  0.1837 -0.4016
  819SOL    HW1 3898   1.271   0.178  10.370 -0.0840  0.6511 -0.3913
  819SOL    HW2 3899   1.397   0.144  10.293 -0.3672 -3.6242  0.7947
  820SOL     OW 3900   7.139   2.739   0.475  0.0662  0.1374  0.0004
  820SOL    HW1 3901   7.197   2.709   0.545  1.0347  1.3639 -0.2401
  820SOL    HW2 3902   7.055   2.695   0.493  0.7111 -0.7151  1.0604
  821SOL     OW 3903   1.410   7.133  11.205 -0.1305  0.9271 -0.1104
  821SOL    HW1 3904   1.490   7.181  11.182 -0.4683  1.1624 -0.8296
  821SOL    HW2 3905   1.441   7.051  11.242  0.4600  1.6122  0.9918
  822SOL     OW 3906   5.144   6.780  11.811 -0.2470 -0.0958 -0.2033
  822SOL    HW1 3907   5.161   6.832  11.732 -0.7414 -0.6382 -0.6745
  822SOL    HW2 3908   5.159   6.841  11.883  1.2095  0.1344 -0.6697
  823SOL     OW 3909   1.388   5.176   4.524  0.0921 -0.3748 -0.4011
  823SOL    HW1 3910   1.447   5.231   4.576 -0.0608 -1.4875  1.0185
  823SOL    HW2 3911   1.359   5.108   4.585 -2.8475  0.2217 -0.9817
  824SOL     OW 3912   3.106   1.172   1.289  0.4482 -0.2088 -0.1793
  824SOL    HW1 3913   3.074   1.155   1.200  0.8357 -1.4800 -0.0971
  824SOL    HW2 3914   3.184   1.225   1.276 -0.6052  1.3618 -0.4706
  825SOL     OW 3915   6.027   7.138   7.923  0.5927  0.1358  0.0458
  825SOL    HW1 3916   6.122   7.150   7.920  0.5986  0.0225 -0.4395
  825SOL    HW2 3917   5.996   7.175   7.840  0.3186 -0.6859 -0.2326
  826SOL     OW 3918   7.819   4.816   0.486 -0.4858 -0.3506  0.0483
  826SOL    HW1 3919   7.742   4.759   0.479 -0.7536  0.0946 -0.7875
  826SOL    HW2 3920   7.877   4.788   0.415  0.4322 -1.1109  1.0669
  827SOL     OW 3921   4.026   4.023  10.908  0.3512 -0.1847  0.2833
  827SOL    HW1 3922   4.068   4.024  10.821 -1.0176 -0.9131 -0.4140
  827SOL    HW2 3923   3.943   4.069  10.894 -0.5507 -1.6047  0.8393
  828SOL     OW 3924   3.360   2.304   0.716 -0.2400 -0.6897  0.3779
  828SOL    HW1 3925   3.356   2.391   0.753  1.8666  0.5192 -1.9237
  828SOL    HW2 3926   3.446   2.299   0.674 -1.0470 -3.1348 -1.2692
  829SOL     OW 3927   0.480   4.774   6.970  0.0968  0.2828  0.9512
  829SOL    HW1 3928   0.405   4.816   7.013 -0.8646  1.0443 -1.3183
  829SOL    HW2 3929   0.493   4.825   6.890  1.3230 -1.4952 -0.0445
  830SOL     OW 3930   4.252   4.740   3.366 -0.4905 -0.3872  0.5378
  830SOL    HW1 3931   4.233   4.774   3.454 -0.6607 -0.6855  0.6193
  830SOL    HW2 3932   4.343   4.710   3.371 -0.5640 -0.5883  0.6713
  831SOL     OW 3933   1.769   0.580  12.181 -0.1567 -0.3417  0.1588
  831SOL    HW1 3934   1.725   0.626  12.110  0.0486 -0.2282  0.1047
  831SOL    HW2 3935   1.841   0.532  12.139 -0.9061 -1.4375  0.0890
  832SOL     OW 3936   0.932   4.719  11.210 -0.0920  0.0973  0.0075
  832SOL    HW1 3937   0.915   4.658  11.282  0.6463 -0.0508  0.0596
  832SOL    HW2 3938   0.845   4.741  11.177 -0.3631 -2.3992 -1.2016
  833SOL     OW 3939   6.572   7.868   8.786 -0.0833  0.0938 -0.3633
  833SOL    HW1 3940   6.545   7.959   8.771 -1.3509 -0.1439  0.3273
  833SOL    HW2 3941   6.653   7.858   8.735  0.2527  1.6922 -0.1971
  834SOL     OW 3942   5.978   2.671  11.715  0.5504  0.4230  0.3148
  834SOL    HW1 3943   5.944   2.662  11.804  2.7361  0.9651  1.2983
  834SOL    HW2 3944   5.951   2.592  11.670 -0.3873  0.0091  1.5524
  835SOL     OW 3945   5.905   6.883   8.032 -0.0702 -0.1010 -0.1629
  835SOL    HW1 3946   5.984   6.830   8.040 -0.7784 -0.9925  1.8785
  835SOL    HW2 3947   5.933   6.964   7.991  1.5022 -1.1494 -1.2537
  836SOL     OW 3948   3.139   2.040   6.046 -0.4587  0.2033 -0.4637
  836SOL    HW1 3949   3.208   1.994   6.094 -0.2738  0.2401 -0.6925
  836SOL    HW2 3950   3.162   2.028   5.954  0.4494  2.0533 -0.5226
  837SOL     OW 3951   4.791   0.702   8.144  0.1738 -0.4615  0.0863
  837SOL    HW1 3952   4.790   0.791   8.179  0.6508  0.0668 -1.2136
  837SOL    HW2 3953   4.849   0.653   8.203  3.0543  1.0161 -1.3503
  838SOL     OW 3954   7.402   0.703   9.281  1.1785  0.2965 -0.4287
  838SOL    HW1 3955   7.427   0.746   9.200  1.8912 -1.1572 -1.0214
  838SOL    HW2 3956   7.446   0.618   9.278 -0.3426 -0.5843  0.5729
  839SOL     OW 3957   3.760   0.718   2.333  0.0894 -0.0770 -0.7463
  839SOL    HW1 3958   3.705   0.680   2.402  1.2269  0.4438  0.4971
  839SOL    HW2 3959   3.834   0.657   2.327 -0.4872 -0.6755 -2.2742
  840SOL     OW 3960   6.187   4.502   5.692  0.3077  0.1832 -0.3583
  840SOL    HW1 3961   6.221   4.465   5.774  1.1054 -0.5506 -0.9986
  840SOL    HW2 3962   6.149   4.586   5.718 -0.0707 -0.3335  0.8732
  841SOL     OW 3963   5.288   0.014   4.296 -0.3586  0.0371  0.0545
  841SOL    HW1 3964   5.314   0.014   4.204  1.5804 -0.4482  0.5685
  841SOL    HW2 3965   5.193  -0.002   4.294 -0.6142  1.4279 -1.8992
  842SOL     OW 3966   4.132   2.264   9.234  0.1369 -0.1054  0.1782
  842SOL    HW1 3967   4.204   2.215   9.195  0.9207 -1.7296  3.3644
  842SOL    HW2 3968   4.174   2.336   9.280 -0.6430  0.9519 -0.6968
  843SOL     OW 3969   1.026   2.334   2.165 -0.3059  0.0217 -0.2710
  843SOL    HW1 3970   0.935   2.362   2.159 -0.4479 -0.1940  0.7256
  843SOL    HW2 3971   1.031   2.257   2.108 -0.1567  1.3934 -2.2136
  844SOL     OW 3972   6.945   0.401  12.209 -0.0520 -0.0869  0.0019
  844SOL    HW1 3973   7.007   0.361  12.149 -1.1111  0.7835 -1.7435
  844SOL    HW2 3974   6.926   0.487  12.171 -1.6681  0.0265  0.9408
  845SOL     OW 3975   4.320   7.017   1.595 -0.1726  0.3615 -0.0433
  845SOL    HW1 3976   4.368   6.988   1.518 -0.8383 -0.8109 -0.0427
  845SOL    HW2 3977   4.232   7.036   1.563 -0.3665  0.1593  0.3563
  846SOL     OW 3978   5.690   7.421   8.618 -0.6280 -0.1509  0.2425
  846SOL    HW1 3979   5.779   7.402   8.589 -0.3867 -0.3505  1.1028
  846SOL    HW2 3980   5.651   7.335   8.633 -0.7354 -0.0498  0.5443
  847SOL     OW 3981   4.464   0.531   9.161 -0.3964 -0.3120  0.2448
  847SOL    HW1 3982   4.398   0.592   9.194 -0.4915 -0.8960  1.1773
  847SOL    HW2 3983   4.435   0.509   9.073 -0.9835  0.1030  0.3329
  848SOL     OW 3984   6.389   4.209   1.371  0.9080  0.2365 -0.2635
  848SOL    HW1 3985   6.447   4.170   1.305 -0.8952 -1.1446 -1.1214
  848SOL    HW2 3986   6.429   4.187   1.455  1.7499 -0.4662 -0.8338
  849SOL     OW 3987   1.181   2.306  11.726  0.1411  0.2150  0.7375
  849SOL    HW1 3988   1.172   2.401  11.718 -0.9764  0.0505 -0.1120
  849SOL    HW2 3989   1.102   2.271  11.687  2.2442 -1.2104 -2.6268
  850SOL     OW 3990   4.304   6.970   9.614  0.1730  0.0372  0.5665
  850SOL    HW1 3991   4.227   6.953   9.669 -0.9615 -1.1118 -1.2794
  850SOL    HW2 3992   4.307   7.066   9.606 -1.5375  0.0842  0.0731
  851SOL     OW 3993   2.161   0.563  11.207 -0.9855  0.0327 -0.7017
  851SOL    HW1 3994   2.253   0.540  11.197 -1.0634 -0.0829 -1.1848
  851SOL    HW2 3995   2.158   0.618  11.285 -0.6142 -0.5408 -0.2794
  852SOL     OW 3996   6.563   0.065   5.621  0.4409 -0.1375 -0.6205
  852SOL    HW1 3997   6.630   0.092   5.684 -0.0582 -0.3814  0.0238
  852SOL    HW2 3998   6.481   0.099   5.657 -0.1911 -2.2721  0.1072
  853SOL     OW 3999   4.310   1.314  11.297  0.0969  0.6246 -0.2068
  853SOL    HW1 4000   4.363   1.249  11.250  0.0069  0.4957 -0.1296
  853SOL    HW2 4001   4.374   1.374  11.336  0.3681 -1.2541  2.4913
  854SOL     OW 4002   4.781   4.316   3.982 -0.3668  0.2648 -0.0987
  854SOL    HW1 4003   4.689   4.290   3.977 -0.5149  0.9459 -1.9627
  854SOL    HW2 4004   4.792   4.376   3.908  1.8136 -0.5648 -0.5158
  855SOL     OW 4005   6.302   0.894   3.694 -0.3135 -0.3755  0.1506
  855SOL    HW1 4006   6.308   0.803   3.664 -0.5109 -0.5048  0.5025
  855SOL    HW2 4007   6.383   0.934   3.664 -0.4177 -0.5550 -0.3881
  856SOL     OW 4008   3.080   5.749   3.250 -0.3713 -0.4447  0.6260
  856SOL    HW1 4009   3.110   5.806   3.321  0.0829 -0.4515  0.4449
  856SOL    HW2 4010   3.091   5.802   3.171 -0.4232 -0.6061  0.5108
  857SOL     OW 4011   3.508   6.706   6.777  0.3773 -0.3938  0.1499
  857SOL    HW1 4012   3.486   6.799   6.777  0.9146 -0.2313 -1.5875
  857SOL    HW2 4013   3.477   6.674   6.862  1.1887  1.5874  1.2508
  858SOL     OW 4014   3.953   2.829   8.985 -0.6071  0.1030 -0.2276
  858SOL    HW1 4015   3.979   2.754   8.932 -1.9331 -2.0465  1.9682
  858SOL    HW2 4016   4.035   2.863   9.019  0.0356 -0.1727 -1.4174
  859SOL     OW 4017   3.436   5.848   2.693 -0.0828  0.2075  0.1409
  859SOL    HW1 4018   3.402   5.794   2.764  0.0666 -1.4398 -0.9678
  859SOL    HW2 4019   3.395   5.933   2.705 -1.4488 -0.5514  1.1696
  860SOL     OW 4020   2.482   5.193   1.778  0.6894  0.0920  0.4399
  860SOL    HW1 4021   2.451   5.249   1.849  0.0420 -0.1520  0.3575
  860SOL    HW2 4022   2.457   5.104   1.805 -1.4483  0.1755 -1.0181
  861SOL     OW 4023   2.939   5.754   9.994 -0.2669 -0.3227  0.4196
  861SOL    HW1 4024   2.861   5.781   9.945  1.6314  0.7013 -2.2322
  861SOL    HW2 4025   2.925   5.661  10.012 -1.9371 -0.2430 -0.2706
  862SOL     OW 4026   4.798   4.328  10.883  0.2846 -0.4744 -0.2613
  862SOL    HW1 4027   4.867   4.296  10.942  0.4111  0.4029  0.0782
  862SOL    HW2 4028   4.832   4.411  10.850 -0.0042 -0.7161 -1.1927
  863SOL     OW 4029   5.634   7.152   4.255  0.1993 -0.3023 -0.0573
  863SOL    HW1 4030   5.719   7.180   4.223  0.2631 -0.1236  0.2632
  863SOL    HW2 4031   5.648   7.133   4.348  0.4273 -2.5429 -0.5170
  864SOL     OW 4032   0.294   5.978   3.394 -0.3626 -0.3120  0.3698
  864SOL    HW1 4033   0.295   6.040   3.467 -2.7230 -0.9260  1.0081
  864SOL    HW2 4034   0.241   6.021   3.327  1.2305 -0.0426 -0.7904
  865SOL     OW 4035   2.069   0.612   2.463  0.3581  0.0225  0.7846
  865SOL    HW1 4036   1.977   0.602   2.439  0.3259 -0.6343  1.1803
  865SOL    HW2 4037   2.067   0.650   2.551  0.4532 -1.1260  1.2907
  866SOL     OW 4038   1.757   2.662  12.048  0.2075  0.0421 -0.0983
  866SOL    HW1 4039   1.748   2.755  12.070 -1.2217 -0.1643  0.3095
  866SOL    HW2 4040   1.762   2.618  12.133  0.9902 -0.2541 -0.2914
  867SOL     OW 4041   3.251   0.070   5.840 -0.1313 -0.1480 -0.6553
  867SOL    HW1 4042   3.191  -0.004   5.855  0.5042 -0.5368  0.0614
  867SOL    HW2 4043   3.321   0.057   5.904 -1.4842  2.6923  1.6861
  868SOL     OW 4044   4.035   6.214   0.881 -0.3598 -0.1849 -0.6236
  868SOL    HW1 4045   4.084   6.291   0.851 -0.0083 -0.4656 -0.7785
  868SOL    HW2 4046   3.960   6.210   0.822 -0.7146  0.3977 -0.2199
  869SOL     OW 4047   2.908   0.768   8.032 -0.4485 -0.0578  0.2603
  869SOL    HW1 4048   2.887   0.809   7.948 -0.1502  0.8920  0.6392
  869SOL    HW2 4049   2.901   0.674   8.014  1.1325  0.0576 -1.2239
  870SOL     OW 4050   5.919   7.799   4.358  0.4501  0.5433  0.2586
  870SOL    HW1 4051   5.869   7.737   4.410  2.5032 -1.0633  0.4318
  870SOL    HW2 4052   5.904   7.773   4.267 -0.4189  1.2198  0.1881
  871SOL     OW 4053   5.539   0.372   2.911  0.0937  0.3695 -0.4760
  871SOL    HW1 4054   5.606   0.375   2.843  0.3074  0.1800 -0.2747
  871SOL    HW2 4055   5.477   0.306   2.881  0.2214  0.2403 -0.4567
  872SOL     OW 4056   3.567   4.294   3.315  0.1649 -0.1603  0.3079
  872SOL    HW1 4057   3.605   4.217   3.358  2.0727  0.8211  0.4893
  872SOL    HW2 4058   3.625   4.311   3.241  0.2667  1.5839  0.7586
  873SOL     OW 4059   6.247   5.983   8.253  0.4569 -0.3068  0.9621
  873SOL    HW1 4060   6.275   5.913   8.312 -1.8831 -3.3676 -1.2425
  873SOL    HW2 4061   6.151   5.983   8.260  0.3140  1.6054 -0.2856
  874SOL     OW 4062   6.839   5.114   7.285  0.1749 -0.2006  0.4947
  874SOL    HW1 4063   6.874   5.158   7.208 -0.6563 -1.4739 -0.6455
  874SOL    HW2 4064   6.818   5.186   7.346  2.7337  0.7134  0.4044
  875SOL     OW 4065   6.954   7.727  11.287  0.3198  0.3196  0.0614
  875SOL    HW1 4066   7.004   7.753  11.209 -2.1222 -1.0935 -2.1426
  875SOL    HW2 4067   6.921   7.810  11.323  1.6085  1.0080 -0.2877
  876SOL     OW 4068   0.473   2.306   1.689  0.1591  0.1773  0.2356
  876SOL    HW1 4069   0.395   2.347   1.652 -0.6849 -3.3824 -2.5464
  876SOL    HW2 4070   0.534   2.300   1.615 -0.5105 -4.7833 -0.2635
  877SOL     OW 4071   6.983   3.563   3.672 -0.2419  0.1867 -0.3611
  877SOL    HW1 4072   6.904   3.542   3.721 -0.3465 -0.6747 -0.8837
  877SOL    HW2 4073   6.952   3.583   3.584 -0.0115  1.3222 -0.2082
  878SOL     OW 4074   3.280   1.776   8.532  0.3657  0.6067  0.7040
  878SOL    HW1 4075   3.246   1.863   8.551  1.3623  1.0662  0.4352
  878SOL    HW2 4076   3.325   1.785   8.448 -2.4899 -0.9916 -1.1628
  879SOL     OW 4077   5.210   5.885   9.511  0.3638  0.1942  0.2074
  879SOL    HW1 4078   5.215   5.900   9.606  1.2571  0.0396  0.1941
  879SOL    HW2 4079   5.201   5.973   9.474 -0.0474  0.2509  0.4357
  880SOL     OW 4080   3.245   7.752   7.274 -0.1187 -0.1715 -0.2747
  880SOL    HW1 4081   3.246   7.749   7.178 -0.7998 -1.6665 -0.2640
  880SOL    HW2 4082   3.207   7.668   7.300 -1.2867  0.7732  1.2741
  881SOL     OW 4083   0.214   0.628  11.176 -0.1079 -0.2756 -0.0001
  881SOL    HW1 4084   0.163   0.634  11.095 -0.7695  0.6941  0.4645
  881SOL    HW2 4085   0.251   0.716  11.187  0.7280 -0.6556  0.2768
  882SOL     OW 4086   4.873   1.482  10.764 -0.0581  0.3957  0.3241
  882SOL    HW1 4087   4.808   1.454  10.829 -1.2052  1.2459 -0.4243
  882SOL    HW2 4088   4.954   1.495  10.815 -0.8854  0.8862  1.5547
  883SOL     OW 4089   3.777   4.425  12.253  0.0115  0.0491 -0.2405
  883SOL    HW1 4090   3.769   4.338  12.215 -2.6612  0.6330 -1.1958
  883SOL    HW2 4091   3.780   4.484  12.178 -0.0433  0.9136  0.4190
  884SOL     OW 4092   2.241   1.283   1.372 -0.0218  0.3336 -0.0311
  884SOL    HW1 4093   2.226   1.371   1.407  0.0500  0.9237 -1.4079
  884SOL    HW2 4094   2.259   1.298   1.279 -1.4260 -1.2702 -0.5957
  885SOL     OW 4095   3.525   7.692   1.404  0.2902  0.2037  0.6678
  885SOL    HW1 4096   3.575   7.642   1.468  1.8392  1.8504  0.8379
  885SOL    HW2 4097   3.530   7.782   1.435 -0.4031  0.8005 -0.8380
  886SOL     OW 4098   4.334   2.792   1.357 -0.2360 -0.1965 -0.0740
  886SOL    HW1 4099   4.321   2.790   1.262 -1.2052  0.2966  0.0449
  886SOL    HW2 4100   4.258   2.838   1.391  0.3320  0.0388  0.9111
  887SOL     OW 4101   2.503   7.561   9.343 -0.1735 -0.7499  0.0874
  887SOL    HW1 4102   2.595   7.536   9.336  0.2858  0.2887  1.9515
  887SOL    HW2 4103   2.504   7.657   9.348 -1.1099 -0.8118  2.7482
  888SOL     OW 4104   7.581   4.932   0.879 -0.2420 -0.6782 -0.5415
  888SOL    HW1 4105   7.639   4.953   0.806  0.2408  0.2547  0.0902
  888SOL    HW2 4106   7.635   4.942   0.957 -1.3529  0.6804  0.0952
  889SOL     OW 4107   2.441   0.128   3.397 -0.4665  0.5496  0.4433
  889SOL    HW1 4108   2.438   0.036   3.373 -0.6030 -0.1816  2.9797
  889SOL    HW2 4109   2.350   0.157   3.397 -0.6523  0.0320  1.7831
  890SOL     OW 4110   6.501   6.776   6.922  0.2607 -0.3913  0.2026
  890SOL    HW1 4111   6.595   6.768   6.933  0.3189 -2.3675 -1.1127
  890SOL    HW2 4112   6.466   6.690   6.947 -1.0254 -0.1475 -0.6336
  891SOL     OW 4113   0.172   4.157   7.808 -0.1498 -0.3252 -0.0491
  891SOL    HW1 4114   0.197   4.212   7.734 -0.0296 -0.1601  0.1140
  891SOL    HW2 4115   0.176   4.215   7.884  1.4796 -0.9225  0.3694
  892SOL     OW 4116   7.017   1.962   3.267 -0.0867  0.3976 -0.2333
  892SOL    HW1 4117   7.020   1.874   3.228  1.0115  0.0295  0.6250
  892SOL    HW2 4118   7.100   2.001   3.242  1.0396 -0.1467  2.3265
  893SOL     OW 4119   4.772   5.863   0.389  0.1825 -0.1389 -0.3900
  893SOL    HW1 4120   4.687   5.841   0.351 -1.1186 -0.7559  2.5663
  893SOL    HW2 4121   4.768   5.958   0.403 -0.6000 -0.3286  0.8601
  894SOL     OW 4122   2.806   7.840   4.951  0.1308 -0.4665  0.2276
  894SOL    HW1 4123   2.868   7.846   4.878 -0.0426 -1.0207  0.0299
  894SOL    HW2 4124   2.767   7.927   4.957  0.0631 -0.4505 -0.4139
  895SOL     OW 4125   4.472   5.853   0.333 -0.0945  0.0514  0.0847
  895SOL    HW1 4126   4.475   5.946   0.353  0.0090  0.1651 -0.4336
  895SOL    HW2 4127   4.461   5.810   0.417  0.2366  0.5146  0.3676
  896SOL     OW 4128   1.043   5.271   0.293  0.4087 -0.2464 -0.5776
  896SOL    HW1 4129   0.959   5.303   0.323  0.1879 -0.7023 -0.6974
  896SOL    HW2 4130   1.070   5.333   0.225  1.7336  1.8239  1.6778
  897SOL     OW 4131   5.576   6.536   1.357  0.1329 -0.1517 -0.0318
  897SOL    HW1 4132   5.543   6.625   1.363 -0.6829 -0.5130  1.1095
  897SOL    HW2 4133   5.508   6.488   1.309  1.1951  0.1084 -1.8911
  898SOL     OW 4134   5.070   1.336   9.251 -0.3085 -0.0011  0.5368
  898SOL    HW1 4135   5.043   1.244   9.242  0.7314 -0.1764 -1.5325
  898SOL    HW2 4136   5.013   1.384   9.191  2.5948 -0.1775 -2.7426
  899SOL     OW 4137   1.319   5.459   8.303 -0.4577  0.2031  0.2890
  899SOL    HW1 4138   1.237   5.503   8.328 -0.9977  0.2777 -1.4235
  899SOL    HW2 4139   1.291   5.385   8.250  0.5730 -0.1090  0.1616
  900SOL     OW 4140   7.075   2.868   5.074  0.3998 -0.1350  0.3116
  900SOL    HW1 4141   7.119   2.870   4.988 -1.6752 -2.7603 -0.9582
  900SOL    HW2 4142   7.006   2.935   5.067 -2.1043 -2.6813 -1.6298
  901SOL     OW 4143   3.398   5.081   2.526  0.5074  0.6630 -0.4756
  901SOL    HW1 4144   3.393   5.080   2.621  1.6128  0.2221 -0.4155
  901SOL    HW2 4145   3.342   5.155   2.500 -2.4716 -1.1724  0.3109
  902SOL     OW 4146   4.169   1.899   8.959  0.1723  0.8283 -0.3115
  902SOL    HW1 4147   4.118   1.975   8.984 -0.6702  0.4454 -0.8038
  902SOL    HW2 4148   4.250   1.935   8.921 -0.8254  1.5363 -1.8685
  903SOL     OW 4149   2.946   1.960   6.327 -0.3400  0.4780  0.5639
  903SOL    HW1 4150   2.890   1.892   6.290 -0.3566  0.7978 -0.0154
  903SOL    HW2 4151   2.915   2.041   6.287 -0.4338  0.8534  1.3806
  904SOL     OW 4152   1.539   1.020   4.525  0.1790 -0.1631  0.1596
  904SOL    HW1 4153   1.522   1.114   4.536  1.9473  0.3164 -0.7961
  904SOL    HW2 4154   1.634   1.014   4.514  0.3306 -2.2982  2.0551
  905SOL     OW 4155   4.964   3.031  11.522  0.5599 -0.5716  0.3089
  905SOL    HW1 4156   4.925   3.002  11.439 -0.6431 -2.8793  1.5720
  905SOL    HW2 4157   4.932   3.120  11.534 -0.7279 -0.8467 -0.8309
  906SOL     OW 4158   4.254   0.531  12.023 -0.0672 -0.0682  0.3584
  906SOL    HW1 4159   4.262   0.514  11.929  0.0483 -1.0167  0.5221
  906SOL    HW2 4160   4.165   0.503  12.045 -0.6341  1.5927  0.2623
  907SOL     OW 4161   5.518   0.780  12.118  0.1396  0.7739  0.1379
  907SOL    HW1 4162   5.562   0.823  12.192  0.3783  0.0064  0.4571
  907SOL    HW2 4163   5.587   0.730  12.074 -0.2759  0.0391  0.2849
  908SOL     OW 4164   7.638   0.957   2.058 -0.2104  0.0116  0.3168
  908SOL    HW1 4165   7.717   0.960   2.112 -0.2635 -0.8129  0.4439
  908SOL    HW2 4166   7.665   0.911   1.979 -1.1407 -2.5011  1.3723
  909SOL     OW 4167   4.313   4.588   5.470 -0.2772 -0.2542  0.0969
  909SOL    HW1 4168   4.346   4.523   5.408 -0.7238 -1.0974  0.7282
  909SOL    HW2 4169   4.361   4.668   5.449  0.8818 -1.0005 -0.1550
  910SOL     OW 4170   6.089   7.778   1.283 -0.0131  0.3845  0.1822
  910SOL    HW1 4171   6.040   7.782   1.365 -2.5537  0.5535 -1.2285
  910SOL    HW2 4172   6.060   7.697   1.241  0.3453  0.8607 -1.0406
  911SOL     OW 4173   3.930   6.684   6.280  0.2875  0.0298 -0.0615
  911SOL    HW1 4174   3.959   6.650   6.365 -1.0818 -0.5077  0.2106
  911SOL    HW2 4175   3.949   6.614   6.218  1.1295  0.3561 -0.1871
  912SOL     OW 4176   0.970   6.598  10.084  0.2614 -0.0690 -0.0034
  912SOL    HW1 4177   0.908   6.663  10.117  0.8198 -0.6950  2.4087
  912SOL    HW2 4178   1.035   6.650  10.036  0.0465  1.0258  0.8557
  913SOL     OW 4179   2.790   7.858   2.629  0.2261 -0.3671  0.1561
  913SOL    HW1 4180   2.695   7.866   2.637  0.2115  0.7821 -0.8926
  913SOL    HW2 4181   2.802   7.795   2.557  0.2667 -0.5128  0.2890
  914SOL     OW 4182   6.884   5.490  10.017  0.2672 -0.0666  0.3146
  914SOL    HW1 4183   6.832   5.564  10.048 -1.1501 -1.3473  1.1440
  914SOL    HW2 4184   6.847   5.470   9.930  0.2323 -0.1661  0.3524
  915SOL     OW 4185   7.624   1.595   3.520  0.1314 -0.1673  0.2005
  915SOL    HW1 4186   7.713   1.560   3.512 -0.0883 -0.9302  0.9328
  915SOL    HW2 4187   7.636   1.690   3.517  0.8658 -0.2652 -0.6458
  916SOL     OW 4188   0.597   5.989   9.568  0.3397 -0.0150  0.4035
  916SOL    HW1 4189   0.550   5.914   9.604  1.3775 -0.3749  1.0551
  916SOL    HW2 4190   0.528   6.048   9.536 -0.4962 -1.0472  0.2631
  917SOL     OW 4191   4.710   0.883  11.738  0.3804 -0.3439 -0.3429
  917SOL    HW1 4192   4.793   0.891  11.786  0.2026  0.0233 -0.0900
  917SOL    HW2 4193   4.653   0.834  11.797  1.0823 -2.5679 -1.3987
  918SOL     OW 4194   5.480   4.240  10.483 -0.0133 -0.2291 -0.1833
  918SOL    HW1 4195   5.410   4.298  10.453  0.1631  0.1809  0.1965
  918SOL    HW2 4196   5.456   4.217  10.573 -0.1182 -0.8036 -0.3525
  919SOL     OW 4197   3.347   0.764  10.018 -0.2150 -0.8038  0.4027
  919SOL    HW1 4198   3.274   0.820  10.047  0.3437 -0.0576  0.3959
  919SOL    HW2 4199   3.378   0.721  10.098 -0.4108 -0.8227  0.4685
  920SOL     OW 4200   5.255   3.400   9.358  0.1472 -0.9774 -0.2962
  920SOL    HW1 4201   5.258   3.306   9.376 -0.1109 -0.9244  0.0283
  920SOL    HW2 4202   5.200   3.436   9.427 -0.0571 -0.6381 -0.6334
  921SOL     OW 4203   2.719   5.029   9.616  0.4248  0.5365 -0.7111
  921SOL    HW1 4204   2.811   5.005   9.618  0.7597  1.8168  0.3155
  921SOL    HW2 4205   2.711   5.090   9.542  0.3042  0.0898 -1.0703
  922SOL     OW 4206   2.140   6.526   2.991 -0.4724  0.1055  0.3110
  922SOL    HW1 4207   2.157   6.542   3.083  0.4305 -1.7265  0.4986
  922SOL    HW2 4208   2.164   6.608   2.948  0.3048  0.5668  1.5664
  923SOL     OW 4209   0.754   2.630   3.913 -0.0289  0.1542  0.0468
  923SOL    HW1 4210   0.721   2.717   3.892 -1.2229 -0.2205  0.3116
  923SOL    HW2 4211   0.681   2.586   3.955  0.7851 -0.7475  0.5564
  924SOL     OW 4212   2.426   7.352  11.586  0.1554  0.0461 -0.1722
  924SOL    HW1 4213   2.362   7.334  11.656  0.1763 -0.4321 -0.2743
  924SOL    HW2 4214   2.484   7.277  11.587  1.6602  1.1582  0.9432
  925SOL     OW 4215   1.337   4.010  11.556  0.1794 -0.3802 -0.1799
  925SOL    HW1 4216   1.315   3.919  11.536  1.8209 -0.7707 -0.4250
  925SOL    HW2 4217   1.402   4.034  11.489  0.0236  0.8605  0.0867
  926SOL     OW 4218   2.813   2.984   3.724  0.1412 -0.1109 -1.0055
  926SOL    HW1 4219   2.870   3.058   3.704 -0.0339  0.6589  1.0973
  926SOL    HW2 4220   2.730   3.006   3.682  0.4280  0.3328 -1.3486
  927SOL     OW 4221   5.656   5.169   1.612  0.4850 -0.8351  0.2174
  927SOL    HW1 4222   5.567   5.199   1.628  1.1799  0.6980  1.5657
  927SOL    HW2 4223   5.666   5.172   1.517 -0.7263 -0.4935  0.0915
  928SOL     OW 4224   6.365   4.509   3.162 -0.1980 -0.4729 -0.0901
  928SOL    HW1 4225   6.391   4.544   3.076 -0.8646 -0.8213 -0.4425
  928SOL    HW2 4226   6.420   4.556   3.224 -0.4243  0.5339 -0.6182
  929SOL     OW 4227   2.659   3.696   9.895 -0.2862 -0.0933 -0.3925
  929SOL    HW1 4228   2.709   3.677   9.974 -0.7454 -0.8533 -0.2759
  929SOL    HW2 4229   2.633   3.788   9.904  3.1992  1.1793 -1.6225
  930SOL     OW 4230   5.464   1.905   3.244 -0.3070  0.7700 -0.3302
  930SOL    HW1 4231   5.528   1.850   3.289  0.2179  1.2256 -0.5129
  930SOL    HW2 4232   5.416   1.844   3.187 -2.1954 -0.1775  2.0836
  931SOL     OW 4233   3.208   2.269   3.795  0.3329 -0.2559  0.2388
  931SOL    HW1 4234   3.143   2.263   3.725 -0.8725  1.5075  1.1252
  931SOL    HW2 4235   3.292   2.258   3.751 -0.3693  1.0041 -1.5411
  932SOL     OW 4236   6.649   4.903   2.267 -0.1301 -0.0222 -0.4013
  932SOL    HW1 4237   6.716   4.886   2.201  0.1814  1.1226 -0.3973
  932SOL    HW2 4238   6.698   4.920   2.347 -0.4906 -0.8864  0.0147
  933SOL     OW 4239   7.920   3.564   7.109  0.5705 -0.4265  0.4423
  933SOL    HW1 4240   7.917   3.651   7.068  0.3698 -0.1979  0.9339
  933SOL    HW2 4241   7.842   3.519   7.075  0.5596 -0.3364  0.3476
  934SOL     OW 4242   0.086   6.255   7.171 -0.1906  0.1048 -0.3753
  934SOL    HW1 4243   0.117   6.165   7.157 -1.3395 -0.1813 -1.2494
  934SOL    HW2 4244   0.156   6.310   7.137  0.4823 -0.4558  0.0715
  935SOL     OW 4245   4.985   2.710   5.346 -0.2690 -0.9976  0.4296
  935SOL    HW1 4246   4.939   2.628   5.364 -1.2196 -0.3636  0.9982
  935SOL    HW2 4247   5.006   2.745   5.432 -1.7824  0.3814  0.2955
  936SOL     OW 4248   0.197   6.061  12.161  0.2794  0.2342  0.0809
  936SOL    HW1 4249   0.122   6.116  12.141  0.2548  0.5303  0.9439
  936SOL    HW2 4250   0.195   5.991  12.096  1.3591  2.2374 -2.2557
  937SOL     OW 4251   6.806   2.891  10.182  0.1044 -0.7492 -0.3178
  937SOL    HW1 4252   6.856   2.820  10.141  1.2247 -0.3484  0.3029
  937SOL    HW2 4253   6.843   2.898  10.270  0.7303  1.2687 -0.6922
  938SOL     OW 4254   2.880   4.738   6.379 -0.0465 -0.4433  0.7894
  938SOL    HW1 4255   2.916   4.652   6.356 -1.3532 -0.5929 -0.8741
  938SOL    HW2 4256   2.791   4.719   6.410  0.0364  0.2265  1.4724
  939SOL     OW 4257   3.063   7.255   5.160  0.0166 -0.3073  0.7128
  939SOL    HW1 4258   3.101   7.223   5.078 -0.7522 -0.4947  0.4262
  939SOL    HW2 4259   2.969   7.251   5.146 -0.1218  1.0803  1.0537
  940SOL     OW 4260   1.127   1.270   9.730  0.5960 -1.0391 -0.1147
  940SOL    HW1 4261   1.107   1.268   9.823 -1.0674  1.4792 -0.3077
  940SOL    HW2 4262   1.177   1.190   9.714  1.7860 -1.0972  3.0875
  941SOL     OW 4263   0.565   3.052   2.182  0.3379  0.2350 -0.3879
  941SOL    HW1 4264   0.659   3.043   2.166  0.2933 -3.5227  0.3936
  941SOL    HW2 4265   0.558   3.078   2.274  0.7244 -2.1054  0.3676
  942SOL     OW 4266   0.939   1.409   7.781  0.4102 -0.4021  0.2874
  942SOL    HW1 4267   1.027   1.444   7.792  0.9954 -2.0629  1.1630
  942SOL    HW2 4268   0.944   1.354   7.703 -0.2837  0.7287 -0.5856
  943SOL     OW 4269   0.998   2.978  10.774  0.4243 -0.5327  0.0380
  943SOL    HW1 4270   1.038   2.984  10.688  1.1316 -0.2134  0.3785
  943SOL    HW2 4271   1.072   2.970  10.835  0.0322  0.9281  0.7586
  944SOL     OW 4272   1.876   1.824   0.710  0.7353 -0.2067 -0.0308
  944SOL    HW1 4273   1.927   1.904   0.718 -0.4819  0.6687 -0.6964
  944SOL    HW2 4274   1.932   1.756   0.746  3.1085  0.3977 -2.2719
  945SOL     OW 4275   3.831   4.404   3.290  0.2667  0.2256 -0.1551
  945SOL    HW1 4276   3.851   4.312   3.273 -1.5103 -0.1297 -0.5156
  945SOL    HW2 4277   3.772   4.402   3.366 -0.6061  0.9700 -0.7924
  946SOL     OW 4278   5.210   7.430  10.122 -0.0295  0.1227 -0.3792
  946SOL    HW1 4279   5.170   7.483  10.053 -0.9998 -1.5006 -1.1353
  946SOL    HW2 4280   5.258   7.362  10.074 -0.3187 -0.7450  0.5354
  947SOL     OW 4281   1.684   2.277   3.237 -0.7615  0.0723  0.0116
  947SOL    HW1 4282   1.655   2.277   3.328 -1.4180 -0.9536 -0.1787
  947SOL    HW2 4283   1.760   2.218   3.236  0.0943  1.1458  0.1307
  948SOL     OW 4284   0.771   1.713   0.028  0.1920 -0.2557 -0.2980
  948SOL    HW1 4285   0.803   1.624   0.043  0.4625 -0.0293  0.5563
  948SOL    HW2 4286   0.766   1.721  -0.067  0.0329 -1.2262 -0.3898
  949SOL     OW 4287   3.270   6.272   6.883  0.1085 -0.4736 -0.3057
  949SOL    HW1 4288   3.250   6.193   6.934  0.4547  0.3460  1.1300
  949SOL    HW2 4289   3.362   6.289   6.900 -0.2122  0.8203  0.2346
  950SOL     OW 4290   3.014   0.586   0.024  0.5363  0.0837  0.7485
  950SOL    HW1 4291   3.084   0.549  -0.031  0.3970 -0.3434  0.8552
  950SOL    HW2 4292   2.948   0.616  -0.039  0.2471 -0.6663  0.6865
  951SOL     OW 4293   5.050   7.414   8.830  0.1672  0.3281  0.2441
  951SOL    HW1 4294   5.038   7.355   8.755 -1.6707 -0.9226  1.4340
  951SOL    HW2 4295   5.136   7.389   8.866  0.3386 -0.1775 -0.4827
  952SOL     OW 4296   2.918   4.990   5.164 -0.2588  0.4116 -0.9243
  952SOL    HW1 4297   2.866   4.963   5.239  0.8232  0.0742 -0.2774
  952SOL    HW2 4298   2.995   5.031   5.202  0.5792 -0.2688 -1.8382
  953SOL     OW 4299   0.366   6.523   1.900  0.4177 -0.1601 -0.3967
  953SOL    HW1 4300   0.430   6.468   1.945 -0.9132 -0.1961  1.6150
  953SOL    HW2 4301   0.298   6.538   1.966 -1.1765  0.6419 -2.1398
  954SOL     OW 4302   1.674   2.363  11.595 -0.7045 -0.2707  0.0484
  954SOL    HW1 4303   1.654   2.356  11.502  1.2967  1.0631 -0.5459
  954SOL    HW2 4304   1.743   2.298  11.609 -1.1549 -0.6248  0.6876
  955SOL     OW 4305   3.819   1.182   7.635  0.1828 -0.1709  0.2032
  955SOL    HW1 4306   3.818   1.135   7.719 -0.6368  0.0304  0.3163
  955SOL    HW2 4307   3.733   1.166   7.598 -0.0528  1.0994  0.1603
  956SOL     OW 4308   0.821   3.573   0.930 -0.0280 -0.5501  0.1966
  956SOL    HW1 4309   0.837   3.570   1.024 -0.4262 -0.2606  0.2742
  956SOL    HW2 4310   0.907   3.557   0.890  0.2029 -0.3379  0.6057
  957SOL     OW 4311   6.832   6.738  10.966  0.2925 -0.5529 -0.0122
  957SOL    HW1 4312   6.905   6.676  10.961  1.2090  0.4936 -0.0190
  957SOL    HW2 4313   6.808   6.755  10.875  1.6300  0.8936 -0.1254
  958SOL     OW 4314   1.395   5.698   2.338  0.6692 -0.3085 -0.2385
  958SOL    HW1 4315   1.406   5.790   2.359  4.1427 -0.6461  0.0013
  958SOL    HW2 4316   1.400   5.653   2.423 -0.3246 -0.7829 -0.4168
  959SOL     OW 4317   0.153   5.768   2.553  0.6167 -0.0378 -1.2875
  959SOL    HW1 4318   0.212   5.831   2.511 -0.3795  1.1287 -0.9922
  959SOL    HW2 4319   0.066   5.795   2.524  0.0487 -0.2878  0.1402
  960SOL     OW 4320   0.656   3.533   1.961 -0.2661  0.2911  0.1507
  960SOL    HW1 4321   0.700   3.610   1.996 -1.0206  0.7905  0.0192
  960SOL    HW2 4322   0.710   3.459   1.990 -0.4397  0.7398  1.6883
  961SOL     OW 4323   7.222   3.145   2.900  0.5191 -0.1556  0.2228
  961SOL    HW1 4324   7.182   3.209   2.841  0.6909 -1.0606 -0.8966
  961SOL    HW2 4325   7.292   3.194   2.945 -0.5532  0.9282  0.7936
  962SOL     OW 4326   2.621   0.999   6.480 -0.2154 -0.1525 -0.1066
  962SOL    HW1 4327   2.596   0.915   6.518 -0.4254 -0.5944 -1.1823
  962SOL    HW2 4328   2.629   0.982   6.386 -1.5755  1.3179 -0.5411
  963SOL     OW 4329   2.316   7.903   0.712 -0.6652 -0.4410 -0.3880
  963SOL    HW1 4330   2.408   7.921   0.730 -1.2631  1.4156  1.0853
  963SOL    HW2 4331   2.302   7.938   0.624 -0.2976  0.6469 -0.0287
  964SOL     OW 4332   6.562   4.006   8.874  0.3975 -0.2971  0.0435
  964SOL    HW1 4333   6.612   3.953   8.936  1.3836 -0.9107 -1.2187
  964SOL    HW2 4334   6.477   3.961   8.867 -0.1903  0.4547  1.8057
  965SOL     OW 4335   4.912   6.841   0.570  0.1863  0.6614  0.6190
  965SOL    HW1 4336   4.997   6.802   0.551 -0.2244  0.1728 -0.3001
  965SOL    HW2 4337   4.897   6.822   0.663 -1.2248 -3.9438 -0.2817
  966SOL     OW 4338   0.852   3.300  10.286 -0.5519 -0.0601 -0.1582
  966SOL    HW1 4339   0.903   3.330  10.211  1.2158  1.0560  1.3933
  966SOL    HW2 4340   0.875   3.361  10.357 -0.4755 -2.3041  1.8922
  967SOL     OW 4341   6.117   7.632   8.618  0.2138  0.3847 -0.5549
  967SOL    HW1 4342   6.137   7.569   8.548 -0.2297  0.6461 -0.9212
  967SOL    HW2 4343   6.161   7.597   8.695 -1.1554 -1.1086 -0.4030
  968SOL     OW 4344   7.754   1.651   0.733  0.0689  0.1847 -0.0345
  968SOL    HW1 4345   7.705   1.641   0.652 -0.8617 -2.0898  0.7271
  968SOL    HW2 4346   7.697   1.616   0.801  1.7915 -0.3085  1.2409
  969SOL     OW 4347   6.061   2.307   3.455 -0.0964 -0.2909  0.5609
  969SOL    HW1 4348   6.117   2.254   3.511 -0.4451 -1.0299  0.2188
  969SOL    HW2 4349   6.051   2.390   3.503  1.1874 -0.1915  0.6674
  970SOL     OW 4350   6.370   2.772   2.783 -0.4864 -0.9273  0.1935
  970SOL    HW1 4351   6.435   2.828   2.741 -0.7264 -1.2407 -0.6148
  970SOL    HW2 4352   6.422   2.701   2.822 -0.1011  0.2836  1.9764
  971SOL     OW 4353   2.950   2.219   7.926 -0.8821 -0.2863  0.4591
  971SOL    HW1 4354   2.894   2.284   7.883 -0.0527  1.4526  1.8566
  971SOL    HW2 4355   2.920   2.220   8.017  1.2535  0.5891  1.2042
  972SOL     OW 4356   5.725   4.775   3.739  0.3240  0.0117  0.1356
  972SOL    HW1 4357   5.762   4.733   3.661 -1.1830 -0.0604 -0.5869
  972SOL    HW2 4358   5.660   4.836   3.704  0.7635  1.1744  1.2835
  973SOL     OW 4359   3.353   0.688   9.767  0.4507 -0.0876 -0.3172
  973SOL    HW1 4360   3.396   0.758   9.717  1.0925 -0.2539 -0.0198
  973SOL    HW2 4361   3.349   0.723   9.857  0.5741 -0.3405 -0.2125
  974SOL     OW 4362   7.119   0.668  10.969  0.0691 -0.5354 -0.2890
  974SOL    HW1 4363   7.034   0.706  10.948  0.7571  2.3039  1.5859
  974SOL    HW2 4364   7.103   0.618  11.049  0.4162  1.2807  0.9488
  975SOL     OW 4365   3.016   7.811   0.710 -0.5310  0.0241  0.3684
  975SOL    HW1 4366   3.071   7.733   0.710 -0.9435 -0.2820 -0.6827
  975SOL    HW2 4367   3.050   7.864   0.637 -3.7480 -1.7692 -2.7281
  976SOL     OW 4368   4.509   0.926   3.915  0.6945  0.4513 -0.0473
  976SOL    HW1 4369   4.488   0.934   4.008 -0.2712  2.2189 -0.3809
  976SOL    HW2 4370   4.442   0.868   3.880  1.5468 -0.8966  0.4800
  977SOL     OW 4371   5.196   4.000   5.843  0.3514 -0.2155  0.1077
  977SOL    HW1 4372   5.126   3.942   5.815 -1.0243  1.4090  0.0547
  977SOL    HW2 4373   5.172   4.026   5.932  0.4193  1.0493 -0.2304
  978SOL     OW 4374   1.641   6.671  11.201  0.1589 -0.3279 -0.1741
  978SOL    HW1 4375   1.648   6.622  11.283 -0.2991 -0.9092 -0.4754
  978SOL    HW2 4376   1.552   6.655  11.171 -0.3304  1.4602  0.1973
  979SOL     OW 4377   7.825   2.089   3.941 -0.1624 -0.1231 -0.3841
  979SOL    HW1 4378   7.884   2.156   3.906 -1.1181  0.9540 -0.0317
  979SOL    HW2 4379   7.738   2.120   3.914 -0.6109 -1.3188 -0.3311
  980SOL     OW 4380   7.134   6.864   0.408  0.7227 -0.3595 -0.1031
  980SOL    HW1 4381   7.206   6.923   0.382  0.7573  0.5755  1.9105
  980SOL    HW2 4382   7.085   6.914   0.473 -1.1160 -1.4254 -0.6118
  981SOL     OW 4383   3.248   3.383   2.248  0.0825  0.7097 -0.3447
  981SOL    HW1 4384   3.314   3.409   2.312 -0.9029  0.9450  0.6073
  981SOL    HW2 4385   3.232   3.290   2.266  0.5320  0.5113 -0.9337
  982SOL     OW 4386   7.022   0.743   7.518 -0.1247  0.2521  0.5863
  982SOL    HW1 4387   6.956   0.675   7.530  0.5136 -0.3132  0.9610
  982SOL    HW2 4388   7.103   0.695   7.500 -0.2232  0.9487 -2.1521
  983SOL     OW 4389   2.449   0.265   9.067  0.5348 -0.0264  0.0955
  983SOL    HW1 4390   2.436   0.252   9.161 -0.8132 -1.0874 -0.2059
  983SOL    HW2 4391   2.487   0.183   9.037  0.0990 -0.0431 -0.4226
  984SOL     OW 4392   6.863   1.371   6.055  0.0931  0.0026 -0.0302
  984SOL    HW1 4393   6.941   1.358   6.001  0.3026 -0.3571  0.3585
  984SOL    HW2 4394   6.891   1.353   6.144 -0.9879 -2.6242 -0.1364
  985SOL     OW 4395   0.314   3.293   3.068  0.3409  0.4804  0.3991
  985SOL    HW1 4396   0.297   3.348   3.144  1.4206 -0.6504  1.4939
  985SOL    HW2 4397   0.384   3.234   3.096 -1.4427 -2.1448 -0.3640
  986SOL     OW 4398   4.464   6.317   5.876 -0.0120 -0.2677  0.3237
  986SOL    HW1 4399   4.400   6.382   5.848  1.2576  0.3092 -1.4288
  986SOL    HW2 4400   4.507   6.356   5.953 -0.6556  0.0432  0.5277
  987SOL     OW 4401   7.217   1.630   1.879 -0.9520  0.4261 -0.3220
  987SOL    HW1 4402   7.283   1.561   1.878 -1.1228  0.2489  0.3800
  987SOL    HW2 4403   7.154   1.602   1.945 -1.5961  0.7222 -0.8001
  988SOL     OW 4404   6.769   5.393   2.580  0.2078  0.1492  0.0559
  988SOL    HW1 4405   6.858   5.358   2.590 -0.1062 -0.1734  2.2214
  988SOL    HW2 4406   6.779   5.487   2.596  0.0634 -0.0077  1.1343
  989SOL     OW 4407   2.412   4.299   1.093  0.1854 -0.1943  0.0189
  989SOL    HW1 4408   2.402   4.205   1.080  2.4812 -1.1732  3.7131
  989SOL    HW2 4409   2.337   4.323   1.148  0.1323 -0.0790 -0.1038
  990SOL     OW 4410   4.725   0.330   8.727 -0.5552  0.1443 -0.1148
  990SOL    HW1 4411   4.774   0.326   8.644 -1.8180 -1.7179 -0.8381
  990SOL    HW2 4412   4.743   0.417   8.761  1.9588  0.1158 -1.1255
  991SOL     OW 4413   1.322   6.040  11.190  0.2428 -0.7896 -0.6271
  991SOL    HW1 4414   1.396   6.076  11.237  1.1260  0.1795 -2.6542
  991SOL    HW2 4415   1.361   5.990  11.118 -0.9845  1.6836 -3.1632
  992SOL     OW 4416   4.076   7.288   2.158 -0.4848  0.0045  0.5495
  992SOL    HW1 4417   4.142   7.330   2.214  1.5447  0.3803 -1.9347
  992SOL    HW2 4418   4.025   7.234   2.218  3.2965 -1.8236  2.5119
  993SOL     OW 4419   7.621   5.566   7.572 -0.1799 -0.5338  0.1268
  993SOL    HW1 4420   7.606   5.626   7.499 -0.0674  1.4937  1.6686
  993SOL    HW2 4421   7.666   5.491   7.533 -2.1217 -0.5949 -2.2411
  994SOL     OW 4422   6.615   7.098   4.813 -0.1467 -0.4904 -0.5846
  994SOL    HW1 4423   6.603   7.038   4.886  2.5543 -1.1193 -0.5695
  994SOL    HW2 4424   6.611   7.185   4.852  0.2098 -0.7932  0.1275
  995SOL     OW 4425   5.289   7.339  10.383 -0.1982 -0.2463 -0.1448
  995SOL    HW1 4426   5.371   7.292  10.371  0.9985  1.5172  0.6750
  995SOL    HW2 4427   5.247   7.337  10.297  0.7137 -1.1282 -0.5825
  996SOL     OW 4428   3.527   0.939   2.464 -0.8406 -0.6122 -0.3131
  996SOL    HW1 4429   3.596   0.931   2.530  0.4741 -0.8634 -1.6681
  996SOL    HW2 4430   3.529   0.855   2.418 -1.7774 -0.4599 -0.6421
  997SOL     OW 4431   2.218   3.159   7.739 -0.2979 -0.3488  0.1757
  997SOL    HW1 4432   2.153   3.224   7.711 -0.0586 -0.6183 -1.0717
  997SOL    HW2 4433   2.214   3.090   7.672 -0.6754 -1.7364  1.5649
  998SOL     OW 4434   2.453   1.883   1.846  0.0004  0.3233  0.0022
  998SOL    HW1 4435   2.518   1.894   1.916  1.0658 -3.4878 -0.1510
  998SOL    HW2 4436   2.505   1.869   1.767 -0.9413 -1.4113 -0.3769
  999SOL     OW 4437   7.357   0.047   4.225 -0.0354 -0.2263 -0.0701
  999SOL    HW1 4438   7.330   0.012   4.140  0.4210 -1.4222  0.2456
  999SOL    HW2 4439   7.307   0.128   4.236 -0.8736 -0.6027 -1.0162
 1000SOL     OW 4440   6.309   7.288   9.133  0.2685 -0.0784 -0.2649
 1000SOL    HW1 4441   6.225   7.247   9.155 -0.4836  1.5642  0.1279
 1000SOL    HW2 4442   6.319   7.358   9.198  2.0057 -0.2930 -0.2529
 1001SOL     OW 4443   5.838   6.632   2.030 -0.2065  0.2586  0.2662
 1001SOL    HW1 4444   5.883   6.712   2.058  0.5011  0.3178 -0.9562
 1001SOL    HW2 4445   5.822   6.646   1.937 -0.5590 -0.8091  0.1594
 1002SOL     OW 4446   6.043   6.653   8.670 -0.0486 -0.0076 -0.2346
 1002SOL    HW1 4447   6.035   6.747   8.689  0.3071  0.1211 -0.7101
 1002SOL    HW2 4448   5.957   6.617   8.692 -0.4696  0.5815 -0.8981
 1003SOL     OW 4449   3.197   3.810  12.295  0.3493  0.5751 -0.4285
 1003SOL    HW1 4450   3.278   3.759  12.295  0.3418  0.4334  2.5236
 1003SOL    HW2 4451   3.135   3.757  12.244  1.5681 -0.2075 -1.1467
 1004SOL     OW 4452   2.551   1.298   5.738 -0.3879 -0.0436  0.2598
 1004SOL    HW1 4453   2.557   1.388   5.771  0.2462 -0.1956  0.5766
 1004SOL    HW2 4454   2.559   1.244   5.816  1.2474 -0.4161 -0.1292
 1005SOL     OW 4455   6.746   5.898   5.093  0.5014  0.3292 -0.0936
 1005SOL    HW1 4456   6.711   5.936   5.173  1.0945 -0.9966  0.8301
 1005SOL    HW2 4457   6.756   5.972   5.033  2.1768  1.7435  1.8187
 1006SOL     OW 4458   6.413   5.180   5.985  0.2085  0.3298  0.2060
 1006SOL    HW1 4459   6.438   5.256   5.933  0.5661 -0.3934 -0.6988
 1006SOL    HW2 4460   6.359   5.216   6.056  1.7954  1.6198  0.8079
 1007SOL     OW 4461   4.948   3.317   4.758  0.0288 -0.3950 -0.3167
 1007SOL    HW1 4462   4.885   3.317   4.685 -1.5055 -0.0947  0.9513
 1007SOL    HW2 4463   4.943   3.405   4.794 -0.1165 -0.8689  0.8622
 1008SOL     OW 4464   3.765   0.256   3.798  0.2570 -0.2088  0.3150
 1008SOL    HW1 4465   3.829   0.322   3.826 -0.1905  0.3459  0.0679
 1008SOL    HW2 4466   3.769   0.188   3.865  0.5028  0.2258  0.7484
 1009SOL     OW 4467   5.461   4.080   1.633 -0.1697  0.2644  0.0306
 1009SOL    HW1 4468   5.454   4.004   1.690 -0.5112 -0.4565 -0.9319
 1009SOL    HW2 4469   5.400   4.144   1.670 -0.9794 -0.4843  0.0313
 1010SOL     OW 4470   0.055   6.904   1.272  0.5069  0.2242 -0.3054
 1010SOL    HW1 4471   0.123   6.843   1.302 -1.3696 -0.9482  1.8859
 1010SOL    HW2 4472  -0.007   6.849   1.225  0.0329  0.9021 -0.4814
 1011SOL     OW 4473   6.100   5.441  10.735  0.4322  0.1507  0.3650
 1011SOL    HW1 4474   6.038   5.448  10.662 -0.8351 -0.6760  1.3242
 1011SOL    HW2 4475   6.123   5.532  10.756 -0.4148  0.4714 -0.0451
 1012SOL     OW 4476   0.095   2.240  10.191  0.3176 -0.8072 -0.2547
 1012SOL    HW1 4477   0.110   2.332  10.214 -0.9935 -0.4168 -0.8498
 1012SOL    HW2 4478   0.127   2.233  10.101 -0.3684 -0.6990 -0.5146
 1013SOL     OW 4479   7.535   2.794  10.218  0.3717 -0.4693  0.0403
 1013SOL    HW1 4480   7.562   2.866  10.161  1.8620  0.4409  1.8097
 1013SOL    HW2 4481   7.615   2.745  10.234 -0.1783 -1.1719  0.7082
 1014SOL     OW 4482   3.098   4.733   4.995  0.1237 -0.0554  0.5203
 1014SOL    HW1 4483   3.114   4.813   4.946 -1.0954 -0.0529  0.0943
 1014SOL    HW2 4484   3.128   4.662   4.937 -1.0276 -0.0349 -0.1328
 1015SOL     OW 4485   5.708   6.334   6.930  0.0987 -0.1883 -0.2791
 1015SOL    HW1 4486   5.646   6.330   6.857 -1.4387  3.0109  0.6829
 1015SOL    HW2 4487   5.666   6.285   7.001 -0.5517  0.4963 -0.1795
 1016SOL     OW 4488   0.203   4.351   9.511 -0.0210  0.1609 -0.0698
 1016SOL    HW1 4489   0.185   4.445   9.504  0.1971  0.2837  0.8626
 1016SOL    HW2 4490   0.126   4.309   9.474  0.3419  0.6966 -1.5406
 1017SOL     OW 4491   2.366   6.958   1.442 -0.3116  0.4526  0.4236
 1017SOL    HW1 4492   2.270   6.955   1.436 -0.2959 -0.5520  0.4919
 1017SOL    HW2 4493   2.392   6.866   1.444  0.5338  0.6892  2.3225
 1018SOL     OW 4494   2.427   2.169   2.249  0.0751 -0.6983  0.1987
 1018SOL    HW1 4495   2.440   2.249   2.299  0.3218  0.0604 -1.0291
 1018SOL    HW2 4496   2.515   2.140   2.227 -0.0387  0.0119 -1.3314
 1019SOL     OW 4497   7.517   1.291   8.892  0.3601  0.1005 -0.3197
 1019SOL    HW1 4498   7.570   1.291   8.972 -0.4563 -0.5883  0.2420
 1019SOL    HW2 4499   7.579   1.310   8.822  1.2030  0.0955  0.4112
 1020SOL     OW 4500   4.024   5.973   5.042 -0.2461  0.5658 -0.3171
 1020SOL    HW1 4501   3.975   5.962   5.124 -0.5003  0.8686 -0.4272
 1020SOL    HW2 4502   4.012   5.890   4.996 -0.2726  0.4704 -0.1417
 1021SOL     OW 4503   1.048   1.178  11.620 -0.2150 -0.1408 -0.1389
 1021SOL    HW1 4504   1.026   1.246  11.556  1.6017 -0.8151 -1.5504
 1021SOL    HW2 4505   0.980   1.111  11.607 -0.6815  0.3643 -0.3577
 1022SOL     OW 4506   3.529   5.216   9.205  0.7920  0.0833 -0.1572
 1022SOL    HW1 4507   3.562   5.210   9.295  3.5042 -1.3284 -1.1239
 1022SOL    HW2 4508   3.562   5.300   9.174 -0.2995  0.6532  0.1994
 1023SOL     OW 4509   7.278   1.714   3.662  0.4963 -0.1935 -0.6074
 1023SOL    HW1 4510   7.320   1.790   3.702  1.0615  0.4865 -2.3637
 1023SOL    HW2 4511   7.205   1.751   3.612 -1.1945 -1.1804  1.0011
 1024SOL     OW 4512   4.871   4.835   9.049 -0.0143  0.5041 -0.2702
 1024SOL    HW1 4513   4.801   4.788   9.002  0.0267 -1.5392  1.5600
 1024SOL    HW2 4514   4.899   4.774   9.117  2.2801  2.0241  0.2539
 1025SOL     OW 4515   6.272   3.684   9.534  0.6214 -0.3422 -0.0879
 1025SOL    HW1 4516   6.237   3.715   9.451  3.5767  2.1586 -0.5542
 1025SOL    HW2 4517   6.195   3.674   9.590 -1.3437 -1.0663 -2.7313
 1026SOL     OW 4518   2.048   4.217   6.362  0.4925 -0.2252 -0.3816
 1026SOL    HW1 4519   2.080   4.255   6.443 -0.3228  1.6873 -0.9003
 1026SOL    HW2 4520   2.076   4.125   6.366 -0.2973 -0.4406  2.4436
 1027SOL     OW 4521   1.458   5.497   0.074 -0.4384 -0.1504 -0.2355
 1027SOL    HW1 4522   1.538   5.478   0.025 -0.0974 -0.3112  0.3811
 1027SOL    HW2 4523   1.436   5.587   0.050 -2.0631 -1.1865 -3.1745
 1028SOL     OW 4524   4.539   7.807   7.605 -0.0100  0.2599  0.1741
 1028SOL    HW1 4525   4.554   7.873   7.673  0.6581 -0.3333  0.6305
 1028SOL    HW2 4526   4.593   7.835   7.531  1.0260 -0.2422  0.7059
 1029SOL     OW 4527   6.996   7.915   1.613  0.1439  0.0885 -0.7111
 1029SOL    HW1 4528   6.985   7.904   1.707 -0.3067  2.3731 -0.4441
 1029SOL    HW2 4529   7.086   7.947   1.603  0.8713 -1.9893 -1.2835
 1030SOL     OW 4530   1.810   7.504   1.300  0.2075  0.2122 -0.5291
 1030SOL    HW1 4531   1.830   7.522   1.208 -1.1359  2.7268 -0.4188
 1030SOL    HW2 4532   1.841   7.582   1.347 -0.0987 -0.5590  1.0144
 1031SOL     OW 4533   7.483   6.108  10.337 -0.0745  0.4169 -0.6383
 1031SOL    HW1 4534   7.455   6.139  10.251  0.2471  1.6971 -0.3140
 1031SOL    HW2 4535   7.577   6.093  10.327 -0.1330  0.0467 -0.6455
 1032SOL     OW 4536   5.798   6.226   4.170 -0.0375 -0.0232 -0.4211
 1032SOL    HW1 4537   5.777   6.313   4.203 -0.3009  0.5034 -1.9182
 1032SOL    HW2 4538   5.723   6.172   4.194 -0.9349  0.7182 -1.5004
 1033SOL     OW 4539   5.902   6.175   2.875  0.2906  0.7264  0.3314
 1033SOL    HW1 4540   5.928   6.228   2.799  2.6997 -0.1900  0.4060
 1033SOL    HW2 4541   5.926   6.086   2.851 -0.9127  0.1085  1.3580
 1034SOL     OW 4542   0.350   4.065  11.283  0.2938  0.0535 -0.2193
 1034SOL    HW1 4543   0.430   4.112  11.259 -0.1014  1.4317  0.9987
 1034SOL    HW2 4544   0.340   4.080  11.377 -0.9437 -0.8209 -0.1816
 1035SOL     OW 4545   6.913   1.107   1.593 -0.2666 -0.1851  0.1811
 1035SOL    HW1 4546   6.943   1.196   1.575 -0.4359 -0.0702  0.4565
 1035SOL    HW2 4547   6.958   1.083   1.674  1.0680 -0.9781 -0.7711
 1036SOL     OW 4548   1.563   2.093   2.202 -0.2889  0.0144 -0.3426
 1036SOL    HW1 4549   1.548   1.999   2.205  0.1316 -0.0695 -0.7260
 1036SOL    HW2 4550   1.478   2.132   2.222 -0.1056 -0.4293  1.4016
 1037SOL     OW 4551   3.255   2.823   3.662  0.2342  0.3883  0.1041
 1037SOL    HW1 4552   3.227   2.902   3.617  2.0857  0.7249 -0.5501
 1037SOL    HW2 4553   3.351   2.827   3.660  0.3625 -1.2901  1.0838
 1038SOL     OW 4554   4.165   1.284   9.746  0.1468  0.0581 -0.3444
 1038SOL    HW1 4555   4.224   1.335   9.691  1.8110 -0.2167  1.1183
 1038SOL    HW2 4556   4.214   1.205   9.768 -0.2765  0.3567  1.8639
 1039SOL     OW 4557   0.526   1.979   1.616  0.1492  0.4902  0.1818
 1039SOL    HW1 4558   0.536   1.951   1.707 -0.6107  1.6858  0.6508
 1039SOL    HW2 4559   0.568   2.065   1.612 -2.6520  1.9677  0.2631
 1040SOL     OW 4560   7.051   6.086   1.495 -0.2086 -0.3343 -0.5481
 1040SOL    HW1 4561   7.145   6.083   1.481 -0.1610  0.8713 -0.5690
 1040SOL    HW2 4562   7.018   6.007   1.452  0.8916 -1.3479  0.3940
 1041SOL     OW 4563   0.475   4.007  11.729 -0.0817  0.0082 -0.2487
 1041SOL    HW1 4564   0.425   4.038  11.654 -1.8916  0.9865  1.2666
 1041SOL    HW2 4565   0.521   4.084  11.761  0.6431 -0.3902 -0.3228
 1042SOL     OW 4566   2.701   5.821   4.319  0.4078  0.3689  0.0397
 1042SOL    HW1 4567   2.746   5.785   4.396 -0.0954 -0.2677  0.0441
 1042SOL    HW2 4568   2.760   5.801   4.246 -0.1449 -1.0669 -0.0516
 1043SOL     OW 4569   3.725   1.896  11.916  0.1580 -0.4615  0.3312
 1043SOL    HW1 4570   3.734   1.805  11.888  1.6605 -0.4755  0.7704
 1043SOL    HW2 4571   3.815   1.928  11.923 -0.3119  0.7498  1.1624
 1044SOL     OW 4572   1.437   2.530   2.117 -0.3104  0.1404  0.0329
 1044SOL    HW1 4573   1.417   2.438   2.103 -0.6968  0.4387 -1.6908
 1044SOL    HW2 4574   1.439   2.541   2.212 -0.5183 -1.5717  0.2638
 1045SOL     OW 4575   1.954   2.951   3.310 -0.2613  0.0480 -0.5603
 1045SOL    HW1 4576   1.951   2.886   3.241 -0.6726  0.8517 -1.3155
 1045SOL    HW2 4577   1.982   3.032   3.266 -1.9781  0.9445 -0.1088
 1046SOL     OW 4578   5.217   4.121   5.604 -0.0306 -0.0747 -0.0906
 1046SOL    HW1 4579   5.131   4.157   5.583  0.6277  1.2034 -0.7401
 1046SOL    HW2 4580   5.214   4.104   5.698 -1.7345 -2.2214 -0.4658
 1047SOL     OW 4581   6.881   1.326   0.212  0.6388 -0.1773  0.1681
 1047SOL    HW1 4582   6.902   1.344   0.120 -0.6066  0.3946 -0.0161
 1047SOL    HW2 4583   6.904   1.407   0.257  1.4757 -0.5383  0.4229
 1048SOL     OW 4584   3.484   0.175  10.800 -0.4386 -0.7105 -0.2834
 1048SOL    HW1 4585   3.551   0.108  10.788 -0.3379 -0.9020  1.1920
 1048SOL    HW2 4586   3.433   0.145  10.875  0.4576  1.4945  1.3085
 1049SOL     OW 4587   5.133   0.773   6.435  0.3619  0.3255 -0.5496
 1049SOL    HW1 4588   5.060   0.817   6.391 -0.9823 -1.1135  0.1391
 1049SOL    HW2 4589   5.183   0.844   6.474 -0.1946  1.4123 -1.7420
 1050SOL     OW 4590   2.942   7.682  10.408 -0.0536 -0.0587 -0.4727
 1050SOL    HW1 4591   2.857   7.638  10.403  1.3307 -2.9518 -1.0525
 1050SOL    HW2 4592   2.967   7.675  10.500 -0.3804  0.6676 -0.3273
 1051SOL     OW 4593   6.419   2.304   6.541 -0.3926 -0.6869 -0.2601
 1051SOL    HW1 4594   6.447   2.374   6.481 -3.6048  2.7961  1.8547
 1051SOL    HW2 4595   6.335   2.274   6.506 -0.8066 -0.8116  0.8047
 1052SOL     OW 4596   2.549   6.830   4.676 -0.2758 -0.0488  0.2601
 1052SOL    HW1 4597   2.602   6.752   4.688 -0.6378 -0.3767 -0.2364
 1052SOL    HW2 4598   2.593   6.879   4.606  0.8970  1.0384  1.7006
 1053SOL     OW 4599   5.224   3.930   6.994  0.5183  0.4416 -0.5126
 1053SOL    HW1 4600   5.287   3.929   6.922  1.6772 -1.0900  0.4395
 1053SOL    HW2 4601   5.257   3.863   7.054 -2.8410 -1.5215 -0.6443
 1054SOL     OW 4602   4.502   6.275   3.151 -0.0282  0.4395 -0.3646
 1054SOL    HW1 4603   4.584   6.309   3.116  0.5378  0.7204  1.1305
 1054SOL    HW2 4604   4.434   6.325   3.105  0.6037  0.0430 -1.7820
 1055SOL     OW 4605   5.812   3.689   9.740 -0.3930  0.2225  0.4753
 1055SOL    HW1 4606   5.736   3.722   9.788 -1.2406 -0.2553 -0.4751
 1055SOL    HW2 4607   5.779   3.611   9.695  0.7265 -0.1134  0.2030
 1056SOL     OW 4608   2.961   5.000   6.329 -0.3756 -0.3202  0.1192
 1056SOL    HW1 4609   3.043   4.985   6.282 -0.1800  1.6082 -0.2436
 1056SOL    HW2 4610   2.927   4.913   6.346  1.1015 -1.1359 -0.8691
 1057SOL     OW 4611   0.082   1.893   6.558  0.0968 -0.1921  0.0776
 1057SOL    HW1 4612   0.167   1.859   6.531 -1.0826 -1.6133 -2.2362
 1057SOL    HW2 4613   0.081   1.984   6.528  0.6459 -0.2935 -0.2532
 1058SOL     OW 4614   0.845   2.756  12.253 -0.8120 -0.1817 -0.5578
 1058SOL    HW1 4615   0.868   2.702  12.328  1.5164  0.1523 -0.9463
 1058SOL    HW2 4616   0.865   2.846  12.280  0.1084 -0.0635 -1.5700
 1059SOL     OW 4617   2.247   4.583  11.346  0.1875  0.3209 -0.1811
 1059SOL    HW1 4618   2.174   4.644  11.361  0.4093  1.0676 -1.8830
 1059SOL    HW2 4619   2.205   4.500  11.326 -0.1522  0.3974  0.1859
 1060SOL     OW 4620   4.432   7.301   5.251 -0.3110  0.2813 -0.1457
 1060SOL    HW1 4621   4.379   7.223   5.268  1.8271 -1.2706 -0.2310
 1060SOL    HW2 4622   4.370   7.364   5.213 -1.9622 -1.6526 -0.8649
 1061SOL     OW 4623   3.349   7.508   1.269 -0.4332 -1.0251  0.2055
 1061SOL    HW1 4624   3.399   7.555   1.337 -2.5542  0.4089  0.8962
 1061SOL    HW2 4625   3.373   7.553   1.187  0.2818 -1.1359  0.3458
 1062SOL     OW 4626   6.723   2.371   1.375 -0.4884  0.1554 -0.2017
 1062SOL    HW1 4627   6.675   2.436   1.425 -0.1381 -0.9920  1.7476
 1062SOL    HW2 4628   6.719   2.402   1.285 -1.2576  2.2663  0.4968
 1063SOL     OW 4629   5.580   6.394   4.820  0.1405 -0.1804 -0.3147
 1063SOL    HW1 4630   5.544   6.390   4.731 -1.2184  3.3540 -0.0596
 1063SOL    HW2 4631   5.531   6.328   4.869 -1.4931  0.1384 -1.4545
 1064SOL     OW 4632   0.915   4.161   6.351 -0.4704  0.3218  0.3277
 1064SOL    HW1 4633   0.884   4.083   6.305 -1.2318  0.4055  0.6874
 1064SOL    HW2 4634   0.970   4.128   6.421 -0.4485  0.1283  0.2192
 1065SOL     OW 4635   6.530   4.922   3.966 -0.0558 -0.1741 -0.2908
 1065SOL    HW1 4636   6.502   4.918   3.875  0.6436  0.7222 -0.5542
 1065SOL    HW2 4637   6.479   4.853   4.009 -0.8832 -0.1655 -1.2139
 1066SOL     OW 4638   7.717   7.006   8.947  0.2566 -0.9152  0.1145
 1066SOL    HW1 4639   7.808   6.985   8.970  0.3642  0.2175  0.7671
 1066SOL    HW2 4640   7.707   7.098   8.970 -1.1007 -1.0620  0.1643
 1067SOL     OW 4641   2.601   3.359   2.232 -0.4241  0.0174 -0.1876
 1067SOL    HW1 4642   2.641   3.283   2.189  1.6201  0.3501  0.9602
 1067SOL    HW2 4643   2.509   3.334   2.244 -0.4165 -1.1745 -2.1760
 1068SOL     OW 4644   5.362   5.259   3.438 -0.5000  0.1537 -0.0414
 1068SOL    HW1 4645   5.427   5.329   3.430 -0.1750 -0.0895  0.4411
 1068SOL    HW2 4646   5.309   5.284   3.513 -1.4537  0.7402 -0.8886
 1069SOL     OW 4647   6.729   3.286   6.710  0.3047 -0.0916 -0.8064
 1069SOL    HW1 4648   6.822   3.265   6.719  0.0532 -0.4457  1.8917
 1069SOL    HW2 4649   6.719   3.370   6.754 -0.4600  0.6313 -2.2963
 1070SOL     OW 4650   3.976   5.747   6.007  0.0427  0.1165  0.7725
 1070SOL    HW1 4651   3.916   5.817   6.032  0.0731  0.0680  0.9854
 1070SOL    HW2 4652   4.059   5.771   6.047  0.2416  0.3327  0.2388
 1071SOL     OW 4653   4.573   1.531   0.875 -0.1457  0.6566 -0.4734
 1071SOL    HW1 4654   4.516   1.555   0.948  0.0298  0.6055 -0.3174
 1071SOL    HW2 4655   4.560   1.436   0.865  0.5580  0.4797  0.1339
 1072SOL     OW 4656   1.636   1.955  10.646 -0.6158 -0.1834 -0.5195
 1072SOL    HW1 4657   1.623   1.964  10.741  2.2716 -2.4622  0.2378
 1072SOL    HW2 4658   1.726   1.985  10.632 -1.0966  0.4083 -2.6345
 1073SOL     OW 4659   7.455   1.201   0.665  0.1423 -0.8952 -0.1382
 1073SOL    HW1 4660   7.442   1.111   0.635 -1.7184 -0.7326  0.0903
 1073SOL    HW2 4661   7.480   1.249   0.586 -0.3003 -1.3256 -0.5434
 1074SOL     OW 4662   5.170   7.424  11.866 -0.6316 -0.9640  0.5567
 1074SOL    HW1 4663   5.242   7.428  11.803 -1.6198 -0.6080 -0.5981
 1074SOL    HW2 4664   5.117   7.502  11.847 -0.8406 -0.7424  1.9855
 1075SOL     OW 4665   7.686   5.924   2.735  0.0145  0.4750 -0.4274
 1075SOL    HW1 4666   7.740   5.862   2.784  0.8927  0.9898 -0.7231
 1075SOL    HW2 4667   7.691   5.893   2.644  0.3176  0.8804 -0.5492
 1076SOL     OW 4668   1.605   5.493   4.035 -0.5098 -0.3935  0.0042
 1076SOL    HW1 4669   1.548   5.421   4.009 -1.5581  0.1666  0.6647
 1076SOL    HW2 4670   1.546   5.567   4.047  0.0296 -0.2879  2.6769
 1077SOL     OW 4671   2.652   5.208  10.470 -0.0729 -0.2808 -0.2237
 1077SOL    HW1 4672   2.601   5.284  10.445  0.6875  0.2393 -0.2235
 1077SOL    HW2 4673   2.638   5.199  10.564  1.0915  0.8374  0.0834
 1078SOL     OW 4674   5.425   0.271  11.906  0.1049  0.5067 -0.1479
 1078SOL    HW1 4675   5.422   0.343  11.842 -0.4206 -0.1029 -0.8315
 1078SOL    HW2 4676   5.352   0.214  11.881  1.4691 -1.1055 -0.6359
 1079SOL     OW 4677   1.786   2.588   6.214 -0.1007 -0.1509  0.1437
 1079SOL    HW1 4678   1.787   2.629   6.128  1.1768 -0.2260  0.0952
 1079SOL    HW2 4679   1.749   2.654   6.272  0.4194  0.4713 -0.2179
 1080SOL     OW 4680   5.937   5.794   8.724 -0.2074 -0.3065 -0.6351
 1080SOL    HW1 4681   5.914   5.783   8.816 -1.6408  0.2450 -0.8961
 1080SOL    HW2 4682   6.007   5.730   8.708  2.2653  1.6483  1.5657
 1081SOL     OW 4683   5.784   6.510   2.252 -0.0244  0.4127 -0.7761
 1081SOL    HW1 4684   5.793   6.577   2.184  0.2613  0.9724 -0.1979
 1081SOL    HW2 4685   5.713   6.454   2.221 -0.4854  1.1709 -1.1154
 1082SOL     OW 4686   6.358   1.428   0.987 -0.2294  0.4560 -0.2957
 1082SOL    HW1 4687   6.368   1.392   0.899  0.2628 -0.1530 -0.0051
 1082SOL    HW2 4688   6.377   1.354   1.045  0.1312  1.0197  0.3236
 1083SOL     OW 4689   5.543   4.930   4.193  0.0226 -0.0075 -0.0140
 1083SOL    HW1 4690   5.548   4.950   4.099 -1.5976 -0.0979 -0.1363
 1083SOL    HW2 4691   5.624   4.966   4.229  1.5990 -1.5657 -1.7153
 1084SOL     OW 4692   5.945   4.279  11.697 -0.0951 -0.5984 -0.2819
 1084SOL    HW1 4693   5.972   4.320  11.615  1.1087 -1.4386 -0.3302
 1084SOL    HW2 4694   5.857   4.244  11.679 -0.7922  1.1520 -0.4963
 1085SOL     OW 4695   0.342   4.961   8.564  0.6284 -0.7053  0.4061
 1085SOL    HW1 4696   0.347   4.884   8.507  2.2912 -0.0286 -0.4442
 1085SOL    HW2 4697   0.414   4.950   8.625  2.3434  1.1895 -1.1443
 1086SOL     OW 4698   6.189   5.266   3.285 -0.1841  0.5351  0.0353
 1086SOL    HW1 4699   6.282   5.250   3.269  0.0192  0.3820  1.2767
 1086SOL    HW2 4700   6.143   5.202   3.231  0.5251 -1.6090  1.8106
 1087SOL     OW 4701   5.040   2.658   9.513  0.1331  0.0574  0.0713
 1087SOL    HW1 4702   5.010   2.698   9.594  1.3471 -0.3637  0.7658
 1087SOL    HW2 4703   5.097   2.586   9.542  0.7885  0.0542 -1.1511
 1088SOL     OW 4704   4.869   6.551   8.854  0.0022  0.1014 -0.4148
 1088SOL    HW1 4705   4.910   6.625   8.898  1.9534 -1.6880  0.9597
 1088SOL    HW2 4706   4.825   6.503   8.924 -1.3521 -0.0373 -1.3044
 1089SOL     OW 4707   1.229   1.853   6.511  0.1085  0.4898  0.4625
 1089SOL    HW1 4708   1.311   1.901   6.509  2.2564 -2.7926  0.9738
 1089SOL    HW2 4709   1.220   1.816   6.423 -0.7096  0.5923  0.4885
 1090SOL     OW 4710   4.022   7.685   5.380 -0.9412  0.0410 -0.2941
 1090SOL    HW1 4711   3.992   7.669   5.291 -0.1027  0.8911 -0.7478
 1090SOL    HW2 4712   4.061   7.772   5.377  0.8202 -0.6748  0.4368
 1091SOL     OW 4713   5.549   5.461   1.070 -0.0870  0.9914 -0.5793
 1091SOL    HW1 4714   5.530   5.369   1.092 -1.2838  1.2395 -0.4943
 1091SOL    HW2 4715   5.615   5.456   1.002 -0.5555  0.0401 -0.9849
 1092SOL     OW 4716   3.023   6.929   6.666  0.5962  1.0202  0.5818
 1092SOL    HW1 4717   3.101   6.889   6.627  0.3304  0.6862  0.3883
 1092SOL    HW2 4718   2.986   6.984   6.597  0.6590  1.1815  0.6744
 1093SOL     OW 4719   7.189   5.824   0.338  0.1005  0.0629  0.0980
 1093SOL    HW1 4720   7.257   5.765   0.307 -0.3560 -0.9404  0.9517
 1093SOL    HW2 4721   7.163   5.788   0.422  0.2067  1.8078  0.9305
 1094SOL     OW 4722   3.992   0.402   7.179 -0.2484 -0.1872  0.2735
 1094SOL    HW1 4723   3.942   0.473   7.139 -0.2544 -0.1289  0.3848
 1094SOL    HW2 4724   3.984   0.417   7.273 -0.2796 -0.3564  0.2973
 1095SOL     OW 4725   4.107   2.832   7.430  0.3015 -0.3630 -0.0510
 1095SOL    HW1 4726   4.193   2.874   7.434  0.0819  0.0187  0.7511
 1095SOL    HW2 4727   4.126   2.742   7.404  0.8860 -0.1150 -0.5182
 1096SOL     OW 4728   2.431   7.134   5.779 -0.2478  0.3901 -0.1829
 1096SOL    HW1 4729   2.515   7.178   5.768  1.4028 -2.0723  1.4976
 1096SOL    HW2 4730   2.381   7.193   5.837  1.9004  0.1630  2.0911
 1097SOL     OW 4731   6.860   3.764   1.775 -0.0668  0.0429  0.5101
 1097SOL    HW1 4732   6.846   3.720   1.691 -0.3706 -2.2240  1.6717
 1097SOL    HW2 4733   6.953   3.785   1.775  0.2256 -1.1718  0.1433
 1098SOL     OW 4734   3.205   1.233  10.655  0.1226  0.0125 -0.6544
 1098SOL    HW1 4735   3.226   1.141  10.669 -2.5154 -0.4728  0.7346
 1098SOL    HW2 4736   3.289   1.279  10.666  1.2699 -2.0933 -0.1200
 1099SOL     OW 4737   2.833   4.436   9.682  0.0196  0.3824  0.6104
 1099SOL    HW1 4738   2.775   4.361   9.696 -1.9976  1.6284 -0.6730
 1099SOL    HW2 4739   2.917   4.397   9.657 -0.7956 -1.4515  0.5882
 1100SOL     OW 4740   5.582   3.878  12.367 -0.4139 -0.1809  0.6895
 1100SOL    HW1 4741   5.655   3.869  12.427  0.9924  1.9698 -0.5526
 1100SOL    HW2 4742   5.504   3.878  12.423  0.5834 -1.2725  2.1539
 1101SOL     OW 4743   0.192   7.592   7.747 -0.1845 -0.7209 -0.1541
 1101SOL    HW1 4744   0.252   7.666   7.745  0.2453 -1.0233  1.0171
 1101SOL    HW2 4745   0.183   7.570   7.840  0.0361 -2.4092 -0.4981
 1102SOL     OW 4746   3.492   4.454   2.578 -0.1653  0.3198 -0.9995
 1102SOL    HW1 4747   3.519   4.382   2.522  0.3043  0.6956 -1.2682
 1102SOL    HW2 4748   3.554   4.453   2.651 -1.0914 -0.4896 -0.2064
 1103SOL     OW 4749   4.704   4.594  11.342 -0.3873  0.7010  0.0430
 1103SOL    HW1 4750   4.771   4.654  11.310  1.7616 -0.8717  1.2471
 1103SOL    HW2 4751   4.689   4.533  11.270 -0.2312  0.8376 -0.1047
 1104SOL     OW 4752   0.952   2.209  11.617 -0.4233 -0.0596  0.5341
 1104SOL    HW1 4753   0.906   2.283  11.658  0.9165  0.5748  0.9488
 1104SOL    HW2 4754   0.922   2.210  11.526  0.5158  1.8215  0.1995
 1105SOL     OW 4755   2.965   4.104   5.741 -0.2728  0.0719  0.5296
 1105SOL    HW1 4756   3.059   4.091   5.731 -0.5808 -1.5486 -0.8614
 1105SOL    HW2 4757   2.941   4.049   5.816 -0.1828  0.1126  0.5885
 1106SOL     OW 4758   6.828   3.603  10.301  0.3210  0.4794 -0.0351
 1106SOL    HW1 4759   6.748   3.563  10.335 -1.4175  4.2535  0.8686
 1106SOL    HW2 4760   6.888   3.604  10.375 -0.6857  1.9232  0.8218
 1107SOL     OW 4761   4.220   6.764   6.450  0.0643  0.0486  0.5932
 1107SOL    HW1 4762   4.158   6.695   6.476  0.2663 -0.2688  0.2398
 1107SOL    HW2 4763   4.294   6.753   6.510  0.6905 -0.9176 -0.3222
 1108SOL     OW 4764   1.246   4.280   6.417  0.0430 -0.4850  0.2007
 1108SOL    HW1 4765   1.299   4.280   6.337 -1.0902 -0.5150 -0.5659
 1108SOL    HW2 4766   1.207   4.193   6.421 -1.6098  0.1871 -0.3875
 1109SOL     OW 4767   1.821   6.946   0.243 -0.1983  0.0295  0.0465
 1109SOL    HW1 4768   1.897   6.953   0.301  0.7253 -1.1769 -0.9813
 1109SOL    HW2 4769   1.758   6.893   0.292  0.9868 -1.8933 -0.4027
 1110SOL     OW 4770   3.691   0.007  10.777 -0.1839 -0.5221 -0.1351
 1110SOL    HW1 4771   3.752  -0.052  10.732 -0.2379  0.1333 -1.0705
 1110SOL    HW2 4772   3.729   0.018  10.864  1.8131  0.9617 -1.1103
 1111SOL     OW 4773   1.914   0.697   5.735 -0.7835  0.9622  0.7085
 1111SOL    HW1 4774   1.886   0.638   5.666  3.4137  1.3080 -1.5879
 1111SOL    HW2 4775   1.890   0.785   5.704 -0.6684  0.9788  0.6670
 1112SOL     OW 4776   2.521   0.643   5.791  0.3329  0.4145  0.0679
 1112SOL    HW1 4777   2.561   0.703   5.728  0.0792  1.3099  0.7462
 1112SOL    HW2 4778   2.510   0.694   5.870  0.8281 -0.7602  0.9253
 1113SOL     OW 4779   1.277   4.552   4.740 -0.4918  0.1092  0.2115
 1113SOL    HW1 4780   1.294   4.588   4.827  0.3513  0.1273  0.0551
 1113SOL    HW2 4781   1.345   4.591   4.685 -1.5090  0.7397 -0.6420
 1114SOL     OW 4782   1.566   4.890  11.117 -0.1564  0.1061  0.2876
 1114SOL    HW1 4783   1.504   4.881  11.044 -0.6060 -0.9624  0.7808
 1114SOL    HW2 4784   1.568   4.984  11.134  0.3822  0.4460 -1.4452
 1115SOL     OW 4785   3.241   2.793   4.396 -0.0457 -0.0428 -0.1744
 1115SOL    HW1 4786   3.160   2.806   4.346  0.9158  1.0114 -1.5290
 1115SOL    HW2 4787   3.274   2.708   4.366 -0.9819 -0.8238  0.9188
 1116SOL     OW 4788   7.018   6.196   9.627  0.0093  0.3303  0.4005
 1116SOL    HW1 4789   7.029   6.131   9.697  1.9166 -1.5746 -1.5266
 1116SOL    HW2 4790   6.930   6.178   9.593 -0.2120  0.0228  1.1073
 1117SOL     OW 4791   1.796   4.995   5.289  0.0904 -0.3105  0.0391
 1117SOL    HW1 4792   1.866   5.029   5.233 -0.9247  1.1542 -0.4272
 1117SOL    HW2 4793   1.827   5.007   5.378  0.5519  0.0596 -0.1707
 1118SOL     OW 4794   0.623   4.103   3.116 -0.0000 -0.1305  0.2020
 1118SOL    HW1 4795   0.560   4.033   3.133 -0.7833  0.3896 -0.4773
 1118SOL    HW2 4796   0.679   4.104   3.193  0.2543 -1.7430  0.0571
 1119SOL     OW 4797   5.881   7.572   5.008  0.3990  0.1884 -0.4055
 1119SOL    HW1 4798   5.922   7.575   4.922  1.7932 -2.2341  0.0968
 1119SOL    HW2 4799   5.950   7.544   5.068 -1.2605 -1.3043  0.9578
 1120SOL     OW 4800   2.891   4.464   5.535 -0.4506 -0.0854  0.2241
 1120SOL    HW1 4801   2.960   4.522   5.503  0.5355 -0.1365  2.1218
 1120SOL    HW2 4802   2.870   4.498   5.622 -0.4718 -2.0059  1.0132
 1121SOL     OW 4803   6.436   4.121   5.353  0.1978  0.5350 -0.3840
 1121SOL    HW1 4804   6.368   4.188   5.347 -0.1409  0.3124  0.7427
 1121SOL    HW2 4805   6.491   4.136   5.276 -1.6307  0.1427 -1.8271
 1122SOL     OW 4806   0.286   5.708   1.633 -0.1652 -0.4919  0.1430
 1122SOL    HW1 4807   0.211   5.737   1.583  0.0605 -0.6732 -0.3012
 1122SOL    HW2 4808   0.251   5.641   1.692 -0.6434  0.4862  1.0128
 1123SOL     OW 4809   6.130   7.321   7.317 -0.3945 -0.2850  0.1940
 1123SOL    HW1 4810   6.119   7.416   7.325 -0.5083 -0.1205 -1.5204
 1123SOL    HW2 4811   6.224   7.307   7.328 -0.1939  0.1965 -0.7961
 1124SOL     OW 4812   3.146   7.123   5.436  0.1156  0.4399  0.8708
 1124SOL    HW1 4813   3.097   7.133   5.354 -0.7931  1.7812  1.5315
 1124SOL    HW2 4814   3.159   7.213   5.467  1.3850  0.0045  1.6710
 1125SOL     OW 4815   4.226   7.592  11.723 -0.6346  0.0108  0.2991
 1125SOL    HW1 4816   4.194   7.676  11.691 -2.4290 -0.3371  1.0226
 1125SOL    HW2 4817   4.306   7.613  11.771 -0.7427  1.2128 -0.0083
 1126SOL     OW 4818   5.594   2.379  12.127  0.3321  0.1867  0.4311
 1126SOL    HW1 4819   5.586   2.413  12.038  0.6417 -1.1912 -0.1526
 1126SOL    HW2 4820   5.516   2.412  12.172  0.8015  1.9311  0.0384
 1127SOL     OW 4821   6.968   7.482  11.748  0.2731  0.5510  0.2741
 1127SOL    HW1 4822   6.937   7.443  11.830  3.0354  2.0789  2.2416
 1127SOL    HW2 4823   7.029   7.418  11.713  0.8396  0.8354  0.7094
 1128SOL     OW 4824   0.310   6.819   3.520 -0.0468  0.6375 -0.3131
 1128SOL    HW1 4825   0.403   6.843   3.525  0.9572 -2.5421 -1.0462
 1128SOL    HW2 4826   0.296   6.761   3.595 -0.5560 -1.2600 -1.7764
 1129SOL     OW 4827   1.917   3.313   9.720  0.1268 -0.3707  0.1450
 1129SOL    HW1 4828   1.865   3.388   9.691 -1.6478 -0.7820  2.0487
 1129SOL    HW2 4829   2.008   3.339   9.705 -0.5273  1.2030 -1.3739
 1130SOL     OW 4830   0.026   4.094   9.724 -0.6779  0.0633  0.6072
 1130SOL    HW1 4831   0.051   4.084   9.632 -0.7636  0.5576  0.5291
 1130SOL    HW2 4832   0.065   4.177   9.750  1.0014 -0.9629  1.5724
 1131SOL     OW 4833   3.041   0.669   8.584  0.1028 -0.4060  0.0160
 1131SOL    HW1 4834   3.000   0.635   8.504 -0.8080 -0.7929  0.6237
 1131SOL    HW2 4835   3.008   0.612   8.653 -0.3225  0.8317  0.8686
 1132SOL     OW 4836   5.895   5.227   4.060 -0.6303 -0.0942  0.0803
 1132SOL    HW1 4837   5.955   5.155   4.078 -0.4722 -0.4064 -1.5268
 1132SOL    HW2 4838   5.862   5.253   4.146  0.4185 -1.1089  0.8262
 1133SOL     OW 4839   4.384   5.661   5.442  0.4334  0.0697 -0.1956
 1133SOL    HW1 4840   4.429   5.580   5.465 -1.5975 -0.7312  1.2732
 1133SOL    HW2 4841   4.362   5.652   5.350  0.6272 -0.8559 -0.1573
 1134SOL     OW 4842   2.177   3.317   2.826 -0.0300  0.0639  0.0303
 1134SOL    HW1 4843   2.245   3.351   2.884  0.3418  1.3711 -1.1082
 1134SOL    HW2 4844   2.143   3.395   2.782 -0.8026 -0.8090 -0.9660
 1135SOL     OW 4845   5.667   4.961   9.662  0.4487 -0.1057 -0.3031
 1135SOL    HW1 4846   5.612   4.982   9.586 -0.1710  1.5064  0.5325
 1135SOL    HW2 4847   5.756   4.984   9.634  0.3077 -0.0426 -0.7185
 1136SOL     OW 4848   1.755   2.129   8.938  0.6831  0.4528  0.0164
 1136SOL    HW1 4849   1.727   2.208   8.983  1.3485  0.0566  1.1692
 1136SOL    HW2 4850   1.692   2.062   8.965  0.3380  0.4965 -0.6638
 1137SOL     OW 4851   0.906   1.323   0.528 -0.0271 -0.1995 -0.8254
 1137SOL    HW1 4852   0.936   1.397   0.475 -0.1289 -1.4270 -2.6675
 1137SOL    HW2 4853   0.985   1.273   0.547 -0.0840 -0.1309 -0.4029
 1138SOL     OW 4854   7.544   7.055   0.554 -0.2092  0.2978  0.2588
 1138SOL    HW1 4855   7.552   7.098   0.639  2.0525 -0.5314  0.5413
 1138SOL    HW2 4856   7.489   6.978   0.571  1.3299 -0.6032  1.3176
 1139SOL     OW 4857   7.146   5.608  10.089 -0.4779  0.2286  0.4565
 1139SOL    HW1 4858   7.211   5.677  10.101  0.2054 -0.2756 -0.2291
 1139SOL    HW2 4859   7.104   5.630  10.006 -0.0040 -0.3628  0.0493
 1140SOL     OW 4860   6.836   0.451   2.924  0.3472  0.4501  0.5807
 1140SOL    HW1 4861   6.748   0.488   2.916 -0.1257 -0.7998 -0.2045
 1140SOL    HW2 4862   6.888   0.499   2.860 -0.4337 -0.6806 -0.9571
 1141SOL     OW 4863   4.975   6.080  11.227  0.4282 -0.4024  0.4998
 1141SOL    HW1 4864   4.950   5.996  11.264 -0.3750 -0.1959  0.4479
 1141SOL    HW2 4865   5.003   6.133  11.302  0.1567 -0.4487  0.6345
 1142SOL     OW 4866   2.633   0.113  11.558  0.0189  0.3176 -0.1111
 1142SOL    HW1 4867   2.585   0.119  11.476 -1.2007  1.0155  0.6083
 1142SOL    HW2 4868   2.706   0.055  11.540 -1.0659 -0.7459 -1.2795
 1143SOL     OW 4869   3.593   0.022  12.358 -0.6620  0.4725  0.1284
 1143SOL    HW1 4870   3.623   0.113  12.356  1.0809  0.0671  2.4733
 1143SOL    HW2 4871   3.597  -0.007  12.267  1.5354  1.9314 -0.3219
 1144SOL     OW 4872   6.437   2.847   1.580 -0.0830  0.0698 -0.4575
 1144SOL    HW1 4873   6.507   2.890   1.629 -0.3930  0.8455 -0.6765
 1144SOL    HW2 4874   6.400   2.916   1.525 -0.7463 -0.4237 -0.6495
 1145SOL     OW 4875   6.209   5.142   2.276 -0.0565  0.6668  0.1907
 1145SOL    HW1 4876   6.151   5.089   2.220  1.4529 -0.0609 -0.7590
 1145SOL    HW2 4877   6.152   5.210   2.312 -1.7896 -0.8024  0.3783
 1146SOL     OW 4878   3.826   6.143  10.614  0.6335  0.5513 -0.1692
 1146SOL    HW1 4879   3.900   6.139  10.674 -0.0654  0.1841  0.6876
 1146SOL    HW2 4880   3.749   6.142  10.670 -0.0954 -1.2325 -1.1037
 1147SOL     OW 4881   5.093   7.299   8.302 -0.3247  0.2582 -0.7257
 1147SOL    HW1 4882   5.131   7.313   8.388 -0.7150 -0.0127 -0.5016
 1147SOL    HW2 4883   5.164   7.315   8.240  0.4999 -1.4459 -0.2703
 1148SOL     OW 4884   3.305   3.673   7.524  0.2587  0.3034  0.7334
 1148SOL    HW1 4885   3.232   3.733   7.537  0.8593  1.0762  0.6527
 1148SOL    HW2 4886   3.318   3.630   7.609 -0.5303 -0.1377  0.6413
 1149SOL     OW 4887   6.283   2.270   3.171 -0.1614  0.3453  0.3661
 1149SOL    HW1 4888   6.217   2.256   3.239  0.2981  1.0842  0.9746
 1149SOL    HW2 4889   6.319   2.356   3.190  0.5885  0.1887 -0.3033
 1150SOL     OW 4890   7.226   4.209   3.854  0.3300  0.4454  0.4961
 1150SOL    HW1 4891   7.153   4.271   3.854  0.2010  0.3392 -1.2852
 1150SOL    HW2 4892   7.301   4.261   3.825  0.2335 -0.1908 -0.9539
 1151SOL     OW 4893   2.720   0.101   9.940  0.4614  0.4319  0.1383
 1151SOL    HW1 4894   2.796   0.138   9.895  1.1650 -0.5535  0.4724
 1151SOL    HW2 4895   2.757   0.051  10.012 -0.5405  0.2980  0.5751
 1152SOL     OW 4896   5.438   3.568   3.243 -0.3696 -0.1736 -0.5409
 1152SOL    HW1 4897   5.436   3.496   3.179  0.1349 -0.4098 -0.2959
 1152SOL    HW2 4898   5.452   3.646   3.189 -0.5110 -0.3041 -0.7723
 1153SOL     OW 4899   1.994   0.590  11.014  0.2344 -0.1560 -0.6358
 1153SOL    HW1 4900   2.046   0.586  11.095 -0.2245 -0.9862 -0.3715
 1153SOL    HW2 4901   1.913   0.634  11.040 -0.6691 -1.9735 -0.1869
 1154SOL     OW 4902   0.385   4.729   2.646 -0.6754  0.0623 -0.0436
 1154SOL    HW1 4903   0.293   4.701   2.654 -0.6997  0.5590  2.0146
 1154SOL    HW2 4904   0.434   4.647   2.642 -1.1936 -0.2167 -1.7672
 1155SOL     OW 4905   6.416   5.506   3.668  0.0217  0.1635  0.5330
 1155SOL    HW1 4906   6.442   5.438   3.731 -1.6608 -1.3536 -0.3184
 1155SOL    HW2 4907   6.334   5.541   3.703 -1.9075 -1.9451 -1.5794
 1156SOL     OW 4908   7.853   4.888  10.980  0.1754  0.0864  0.0416
 1156SOL    HW1 4909   7.848   4.918  10.889 -0.8286 -1.2785 -0.3799
 1156SOL    HW2 4910   7.847   4.968  11.032 -0.1027  0.8144 -1.0833
 1157SOL     OW 4911   2.557   4.919  11.764 -0.4461  0.0749 -0.1094
 1157SOL    HW1 4912   2.606   4.847  11.803  0.9682  1.3603  0.6198
 1157SOL    HW2 4913   2.502   4.952  11.835  0.4480  0.9822  0.1921
 1158SOL     OW 4914   7.158   0.757   4.955 -0.3188  0.4330  0.5105
 1158SOL    HW1 4915   7.193   0.826   5.010 -0.3429 -0.6271  1.8994
 1158SOL    HW2 4916   7.177   0.676   5.002 -0.0759 -0.5418 -1.1840
 1159SOL     OW 4917   4.847   4.017   3.912  0.0796  0.2685  0.2639
 1159SOL    HW1 4918   4.943   4.020   3.909  0.0560  1.5498 -0.5287
 1159SOL    HW2 4919   4.821   4.109   3.901 -1.2350 -0.0011  0.9860
 1160SOL     OW 4920   0.097   3.140   0.557 -0.8398  0.1955  0.4691
 1160SOL    HW1 4921   0.064   3.228   0.576 -0.3221  0.5341 -0.1414
 1160SOL    HW2 4922   0.169   3.155   0.496  0.4070 -0.5330  1.7315
 1161SOL     OW 4923   4.974   1.485   6.708  0.4141  0.1990 -0.1786
 1161SOL    HW1 4924   5.038   1.527   6.765  1.2285 -0.0068 -0.9229
 1161SOL    HW2 4925   4.906   1.552   6.696  2.0998  1.7016 -2.0259
 1162SOL     OW 4926   1.341   1.003   6.620 -0.3857 -0.2486  0.1063
 1162SOL    HW1 4927   1.418   0.948   6.609 -0.6024 -0.4757 -0.2753
 1162SOL    HW2 4928   1.282   0.977   6.550 -0.2902  0.8172 -0.3801
 1163SOL     OW 4929   0.433   2.589   6.342  0.2173  0.2361 -0.1178
 1163SOL    HW1 4930   0.382   2.515   6.375  1.0618  0.7889  2.6938
 1163SOL    HW2 4931   0.522   2.555   6.333  1.1021  1.2729  3.2769
 1164SOL     OW 4932   0.294   1.842   1.605  0.2291 -0.1016  0.7223
 1164SOL    HW1 4933   0.328   1.761   1.642  0.2233 -0.0502  0.8438
 1164SOL    HW2 4934   0.369   1.900   1.600  0.5589 -0.6414 -0.8716
 1165SOL     OW 4935   1.284   3.558   9.745 -0.1285  0.4041 -0.6363
 1165SOL    HW1 4936   1.379   3.569   9.751 -0.0858  0.1582 -0.8521
 1165SOL    HW2 4937   1.262   3.500   9.818  0.0959 -0.7805 -1.4787
 1166SOL     OW 4938   1.521   0.762  10.396 -0.3174  0.0391 -0.2885
 1166SOL    HW1 4939   1.546   0.759  10.304 -0.0054  2.2784 -0.3471
 1166SOL    HW2 4940   1.544   0.676  10.430  2.4825  0.1382 -1.6101
 1167SOL     OW 4941   5.653   4.900   2.357  0.3802  0.5160 -0.0433
 1167SOL    HW1 4942   5.668   4.992   2.379  0.0788  0.4686  0.3855
 1167SOL    HW2 4943   5.740   4.864   2.342  0.4681  0.9948 -0.7423
 1168SOL     OW 4944   4.650   0.761   5.021 -0.6485 -0.0673 -0.6587
 1168SOL    HW1 4945   4.631   0.847   4.983  1.0896  0.0934 -1.2347
 1168SOL    HW2 4946   4.570   0.710   5.005 -1.0439  0.8936 -1.9303
 1169SOL     OW 4947   6.541   2.628   2.507  0.0188 -0.0134 -0.5489
 1169SOL    HW1 4948   6.460   2.584   2.531  0.1186  0.8685  1.6165
 1169SOL    HW2 4949   6.535   2.639   2.412 -1.3080 -2.0136 -0.7675
 1170SOL     OW 4950   6.426   7.438   6.728  0.0044  0.0190 -0.3465
 1170SOL    HW1 4951   6.461   7.395   6.806 -0.0932 -1.6126 -1.1659
 1170SOL    HW2 4952   6.360   7.499   6.762 -0.4286 -1.0644  0.8234
 1171SOL     OW 4953   6.776   0.428   5.529 -0.0542  0.2260 -0.0589
 1171SOL    HW1 4954   6.825   0.395   5.454  0.5974  1.1626 -0.0539
 1171SOL    HW2 4955   6.815   0.383   5.604  0.6786  0.8358 -0.0741
 1172SOL     OW 4956   3.088   7.921   6.219  0.1108  0.4775  0.3138
 1172SOL    HW1 4957   3.063   8.012   6.205 -0.5071  0.1145 -1.1971
 1172SOL    HW2 4958   3.176   7.914   6.183  0.7126  0.7625  1.6713
 1173SOL     OW 4959   2.122   4.464   9.090 -0.1089 -0.1844 -0.8419
 1173SOL    HW1 4960   2.156   4.453   9.178  2.2525 -3.1284 -1.9798
 1173SOL    HW2 4961   2.198   4.454   9.033 -1.9641 -1.0700 -3.3271
 1174SOL     OW 4962   2.302   4.453   6.057 -0.0264  0.6100 -0.1518
 1174SOL    HW1 4963   2.348   4.527   6.018  0.6415  0.8833  1.1188
 1174SOL    HW2 4964   2.279   4.398   5.983  2.6549  0.2834 -0.8458
 1175SOL     OW 4965   1.891   0.527  10.089  0.0410 -0.5827 -0.2596
 1175SOL    HW1 4966   1.943   0.601  10.056  2.2736 -0.4615  3.0887
 1175SOL    HW2 4967   1.934   0.450  10.052  2.1061 -0.4254  1.6345
 1176SOL     OW 4968   1.706   5.403   7.315  0.0298  0.0033 -0.0799
 1176SOL    HW1 4969   1.742   5.325   7.359 -0.8184 -0.8123 -0.7702
 1176SOL    HW2 4970   1.617   5.411   7.352  0.2075  0.8052  0.1750
 1177SOL     OW 4971   5.598   4.416   6.118 -0.7660 -0.5548  0.2569
 1177SOL    HW1 4972   5.579   4.359   6.044 -0.8678 -0.1930 -0.0041
 1177SOL    HW2 4973   5.620   4.357   6.190 -0.3768 -0.9021 -0.1415
 1178SOL     OW 4974   7.533   4.051   3.845  0.2141  0.4359  0.1249
 1178SOL    HW1 4975   7.590   4.086   3.777 -0.6095 -1.9620 -1.9425
 1178SOL    HW2 4976   7.451   4.028   3.800 -1.1663  0.6574  2.3328
 1179SOL     OW 4977   7.722   4.791   9.953 -0.0204 -0.6625  0.0977
 1179SOL    HW1 4978   7.635   4.811   9.987  0.1975  1.1929 -0.3102
 1179SOL    HW2 4979   7.710   4.714   9.898 -1.0645 -1.4808  1.4222
 1180SOL     OW 4980   6.136   1.475   5.566  0.2121  0.3070  0.1923
 1180SOL    HW1 4981   6.158   1.383   5.552  0.8171  0.2893  1.1164
 1180SOL    HW2 4982   6.214   1.523   5.536 -0.1724  0.5345 -0.4594
 1181SOL     OW 4983   7.360   5.263   6.283 -0.6156  0.2667 -0.0761
 1181SOL    HW1 4984   7.392   5.248   6.372 -0.4600  0.3264 -0.1212
 1181SOL    HW2 4985   7.287   5.203   6.273 -0.2986 -0.1227 -0.0879
 1182SOL     OW 4986   1.283   3.858   1.310 -0.2371  0.1859 -0.4238
 1182SOL    HW1 4987   1.320   3.945   1.328  2.1247 -1.0223  1.1475
 1182SOL    HW2 4988   1.325   3.830   1.229 -0.0326  0.0337 -0.2674
 1183SOL     OW 4989   2.335   2.137   6.633 -0.0819 -0.3186 -0.5245
 1183SOL    HW1 4990   2.312   2.157   6.542  1.6629 -2.1432 -1.4440
 1183SOL    HW2 4991   2.284   2.058   6.653  0.0855 -0.3339 -0.1670
 1184SOL     OW 4992   1.966   1.201   0.545  0.2732  0.2939 -0.6646
 1184SOL    HW1 4993   2.019   1.130   0.580 -0.5622 -0.4636 -0.9290
 1184SOL    HW2 4994   1.913   1.161   0.476 -0.3022  1.1373 -0.7333
 1185SOL     OW 4995   3.711   5.394   1.399 -0.2240 -0.5111  0.3406
 1185SOL    HW1 4996   3.755   5.315   1.432  0.5157 -0.5531 -0.7125
 1185SOL    HW2 4997   3.763   5.420   1.323 -0.9476  0.5253  0.1926
 1186SOL     OW 4998   5.423   0.686   9.402 -0.0982 -0.0164 -0.1384
 1186SOL    HW1 4999   5.434   0.779   9.382  0.9366 -0.0954 -0.0035
 1186SOL    HW2 5000   5.478   0.641   9.337 -1.6187 -0.6283 -1.0682
 1187SOL     OW 5001   4.027   7.327   7.525 -0.1284  0.4176  0.4370
 1187SOL    HW1 5002   4.117   7.344   7.499 -0.5042  1.1834 -0.4050
 1187SOL    HW2 5003   4.000   7.252   7.471 -0.4717  1.1508 -0.4336
 1188SOL     OW 5004   7.697   4.586   2.419 -0.5218 -0.0996  0.3413
 1188SOL    HW1 5005   7.714   4.493   2.408 -0.9929 -0.2737  1.0322
 1188SOL    HW2 5006   7.705   4.600   2.514  0.0857  0.6663  0.1872
 1189SOL     OW 5007   3.085   1.337   9.119  0.1488 -0.6319  0.0864
 1189SOL    HW1 5008   3.143   1.390   9.174  0.6643 -1.7574  0.6509
 1189SOL    HW2 5009   3.118   1.248   9.128 -0.1312 -0.9354 -1.5711
 1190SOL     OW 5010   3.668   4.677  10.249 -0.6725 -0.4835  0.7045
 1190SOL    HW1 5011   3.697   4.742  10.314  0.7502 -0.7500  0.3809
 1190SOL    HW2 5012   3.750   4.644  10.211 -1.4243 -1.5650 -0.0178
 1191SOL     OW 5013   3.113   4.880   6.779 -0.1327 -0.0567 -0.1817
 1191SOL    HW1 5014   3.103   4.833   6.696 -0.6435 -0.7704  0.2764
 1191SOL    HW2 5015   3.057   4.833   6.840 -0.8858  1.3245  0.2272
 1192SOL     OW 5016   4.713   1.997  10.664 -0.1177 -0.0259  0.6088
 1192SOL    HW1 5017   4.650   2.023  10.731 -1.5973 -1.3115 -0.2183
 1192SOL    HW2 5018   4.766   1.930  10.706 -1.1373 -0.9352  0.4826
 1193SOL     OW 5019   3.927   3.296  11.425  0.9769  0.6758  0.0490
 1193SOL    HW1 5020   3.848   3.265  11.469  0.9947  0.6623  0.0715
 1193SOL    HW2 5021   3.993   3.230  11.447  1.1886  1.0914  0.6750
 1194SOL     OW 5022   5.207   2.994   3.437  0.2236 -0.2350  0.0699
 1194SOL    HW1 5023   5.146   3.065   3.459 -0.9148 -1.0165 -0.4272
 1194SOL    HW2 5024   5.284   3.038   3.402 -0.5664  0.7615 -0.4775
 1195SOL     OW 5025   1.463   3.463   7.967  0.0686 -0.1131  0.0668
 1195SOL    HW1 5026   1.467   3.541   8.023  0.7274  0.4114 -0.6933
 1195SOL    HW2 5027   1.517   3.398   8.013 -0.8320 -0.2783  0.9216
 1196SOL     OW 5028   7.650   4.417   1.880 -0.1370  0.1585  0.1432
 1196SOL    HW1 5029   7.741   4.439   1.859  0.6204 -1.5429  1.3533
 1196SOL    HW2 5030   7.638   4.449   1.969 -0.8733  0.6917 -0.1350
 1197SOL     OW 5031   5.175   3.361   7.649 -0.4036 -0.3018 -0.2995
 1197SOL    HW1 5032   5.081   3.341   7.655  0.2470 -3.6719  1.3950
 1197SOL    HW2 5033   5.200   3.332   7.562 -0.9358  0.8664 -0.8627
 1198SOL     OW 5034   3.720   3.494   0.236 -0.2608  0.8374  0.0296
 1198SOL    HW1 5035   3.706   3.426   0.170  0.2311 -1.0693  1.7651
 1198SOL    HW2 5036   3.797   3.542   0.206 -0.5027  0.5027 -1.1438
 1199SOL     OW 5037   4.974   0.824   7.266  0.3450  0.0912 -0.1037
 1199SOL    HW1 5038   5.030   0.747   7.270 -0.5336 -0.5517 -0.0604
 1199SOL    HW2 5039   4.935   0.821   7.179  0.4836  0.6156 -0.1870
 1200SOL     OW 5040   5.189   2.114   6.702  0.1524  0.4957  0.2472
 1200SOL    HW1 5041   5.268   2.123   6.649 -1.5827 -0.2466 -2.6997
 1200SOL    HW2 5042   5.193   2.187   6.763  1.4713  2.5823 -2.1469
 1201SOL     OW 5043   6.666   3.746   9.466  0.0337  0.3769  0.0502
 1201SOL    HW1 5044   6.605   3.724   9.536  0.8139  0.5917  0.8032
 1201SOL    HW2 5045   6.613   3.795   9.403 -0.8559 -0.4870  0.1044
 1202SOL     OW 5046   1.472   0.222   4.256 -0.3846  0.4335 -0.6857
 1202SOL    HW1 5047   1.536   0.175   4.310 -0.9637  0.2799 -0.1166
 1202SOL    HW2 5048   1.411   0.260   4.319 -1.2292  0.0257 -1.2447
 1203SOL     OW 5049   1.245   5.866   1.333  0.0128  0.0392  0.4024
 1203SOL    HW1 5050   1.239   5.810   1.256 -0.2693  0.9644 -0.2693
 1203SOL    HW2 5051   1.154   5.892   1.350  0.0080 -0.5506  1.3599
 1204SOL     OW 5052   1.192   5.238   2.252  0.0724 -0.4218 -0.2124
 1204SOL    HW1 5053   1.177   5.148   2.280  0.4572 -0.6336 -0.6604
 1204SOL    HW2 5054   1.177   5.236   2.157 -1.5121  0.3408 -0.0050
 1205SOL     OW 5055   1.459   3.557   9.176  0.6900 -0.2232 -0.1429
 1205SOL    HW1 5056   1.422   3.641   9.152  0.8141 -0.1761 -0.1697
 1205SOL    HW2 5057   1.432   3.544   9.267  2.0963  0.6439  0.4341
 1206SOL     OW 5058   4.810   4.994   2.596 -0.3892  1.0723  0.2884
 1206SOL    HW1 5059   4.733   5.049   2.610 -1.0091  0.4607 -0.6029
 1206SOL    HW2 5060   4.864   5.043   2.534  0.3037  1.8166  1.4291
 1207SOL     OW 5061   7.461   2.486   1.134 -0.2968 -0.0962  0.2232
 1207SOL    HW1 5062   7.451   2.400   1.093  0.3944 -0.0345 -0.0889
 1207SOL    HW2 5063   7.384   2.535   1.104 -1.9042 -1.2507  2.1438
 1208SOL     OW 5064   7.332   7.247   6.597 -0.5167 -0.4730  0.6242
 1208SOL    HW1 5065   7.276   7.307   6.548  0.3992 -0.6048 -0.6347
 1208SOL    HW2 5066   7.354   7.179   6.534  0.8011 -0.5816  1.1806
 1209SOL     OW 5067   0.218   2.523   3.536  0.2066 -0.4671  0.1837
 1209SOL    HW1 5068   0.231   2.617   3.521 -0.4953 -0.2900  0.6530
 1209SOL    HW2 5069   0.289   2.498   3.595  1.4285 -0.6143 -1.2716
 1210SOL     OW 5070   3.744   6.180   3.919 -0.0876  0.1245  0.1436
 1210SOL    HW1 5071   3.712   6.241   3.853  1.0436  2.2054  1.4058
 1210SOL    HW2 5072   3.669   6.166   3.977 -0.5475 -0.2606 -0.5269
 1211SOL     OW 5073   2.469   4.869   8.069  0.4709 -0.1143  0.5248
 1211SOL    HW1 5074   2.540   4.815   8.035 -0.6196 -0.3466 -1.5022
 1211SOL    HW2 5075   2.390   4.819   8.050 -0.6020  2.1957 -1.5893
 1212SOL     OW 5076   0.033   2.066   7.043  0.0480 -0.1808  0.2910
 1212SOL    HW1 5077   0.013   2.158   7.024  0.7665 -0.2273 -0.8101
 1212SOL    HW2 5078   0.078   2.035   6.964  0.5876 -1.2403  0.9977
 1213SOL     OW 5079   4.820   5.394   7.101 -0.2954 -0.2420 -0.0823
 1213SOL    HW1 5080   4.907   5.355   7.086 -0.4619 -0.6953  0.1153
 1213SOL    HW2 5081   4.806   5.384   7.195 -0.6336 -0.3181 -0.1408
 1214SOL     OW 5082   3.184   0.371   0.521 -0.0660  0.6204  0.4426
 1214SOL    HW1 5083   3.153   0.362   0.431  0.7328  0.9167  0.1286
 1214SOL    HW2 5084   3.263   0.426   0.514 -0.6572  1.6418  1.4518
 1215SOL     OW 5085   4.729   4.514   1.431 -0.7303 -0.0813 -0.0953
 1215SOL    HW1 5086   4.696   4.577   1.494  0.0243 -1.9252  2.3251
 1215SOL    HW2 5087   4.651   4.483   1.384 -1.6556 -0.1312  1.4003
 1216SOL     OW 5088   4.809   5.948  10.325 -0.0297 -0.3671 -0.0856
 1216SOL    HW1 5089   4.874   5.973  10.259 -0.4590 -0.6540 -0.6267
 1216SOL    HW2 5090   4.757   6.027  10.340 -1.6442 -0.9726 -2.0917
 1217SOL     OW 5091   7.907   1.922  10.606 -0.4013  0.3754 -0.2291
 1217SOL    HW1 5092   7.974   1.872  10.651 -0.4640  0.7768  0.3159
 1217SOL    HW2 5093   7.835   1.930  10.669 -1.7491 -1.5922 -1.3954
 1218SOL     OW 5094   1.104   0.552   3.332 -0.0985 -0.2243  0.2410
 1218SOL    HW1 5095   1.041   0.508   3.388  0.2421  0.6218  1.3163
 1218SOL    HW2 5096   1.119   0.491   3.260 -1.0229 -1.0567  0.7406
 1219SOL     OW 5097   7.635   7.358   9.430 -0.2281 -0.1830  0.3839
 1219SOL    HW1 5098   7.648   7.447   9.397 -1.0013 -0.3060 -0.2935
 1219SOL    HW2 5099   7.619   7.369   9.524 -0.5346  0.4179  0.2673
 1220SOL     OW 5100   4.075   5.675   1.003  0.2493 -0.2201  0.0090
 1220SOL    HW1 5101   4.152   5.706   1.049  0.3095  1.5684 -1.1873
 1220SOL    HW2 5102   4.106   5.601   0.951  1.1342  0.3740 -0.3283
 1221SOL     OW 5103   1.865   3.935   0.687  0.3995 -0.2650  0.2293
 1221SOL    HW1 5104   1.916   3.966   0.762  1.7894  0.2613 -0.8709
 1221SOL    HW2 5105   1.817   3.860   0.720  2.1734 -1.0064  1.2819
 1222SOL     OW 5106   7.200   3.649   6.088  0.0257 -0.9196 -0.2610
 1222SOL    HW1 5107   7.155   3.624   6.008 -1.4816 -0.3401  0.3742
 1222SOL    HW2 5108   7.214   3.566   6.135  1.2551 -1.3082 -1.2464
 1223SOL     OW 5109   0.791   7.065   0.262 -0.3159  0.0349 -0.2671
 1223SOL    HW1 5110   0.739   7.024   0.331  2.3155  0.0049  1.8443
 1223SOL    HW2 5111   0.803   6.995   0.197  0.7073 -1.3599  1.3275
 1224SOL     OW 5112   5.169   0.081  10.670  0.0857  0.2819  0.1194
 1224SOL    HW1 5113   5.098   0.142  10.649 -0.2016 -0.3513 -0.7887
 1224SOL    HW2 5114   5.173   0.022  10.595  1.3990  0.1380  0.2804
 1225SOL     OW 5115   2.689   5.847   9.858  0.3493  0.3608  0.4037
 1225SOL    HW1 5116   2.641   5.765   9.867  0.7410 -0.0418 -1.0749
 1225SOL    HW2 5117   2.628   5.914   9.892 -0.1376 -0.4632  1.2019
 1226SOL     OW 5118   7.891   0.181   1.137  0.7097 -0.0437 -0.1632
 1226SOL    HW1 5119   7.895   0.089   1.162 -0.7861 -0.6041 -1.7968
 1226SOL    HW2 5120   7.834   0.183   1.060 -2.6729  2.7484  2.1169
 1227SOL     OW 5121   3.627   4.526  11.939  0.2680  0.1511 -0.0874
 1227SOL    HW1 5122   3.620   4.447  11.994 -0.6838 -0.8103 -1.5181
 1227SOL    HW2 5123   3.720   4.545  11.937  0.4345 -0.4309  0.9605
 1228SOL     OW 5124   2.556   1.949   2.894  0.2194  0.3845  0.1038
 1228SOL    HW1 5125   2.485   1.969   2.834 -1.9299 -1.3338  1.9298
 1228SOL    HW2 5126   2.603   2.032   2.904 -2.6778  2.0987  0.3158
 1229SOL     OW 5127   3.316   7.687  10.722  0.2086  0.1584 -0.8242
 1229SOL    HW1 5128   3.293   7.595  10.707  0.7428 -0.3731  1.3129
 1229SOL    HW2 5129   3.312   7.727  10.635 -0.5636 -1.7534 -1.7277
 1230SOL     OW 5130   4.097   6.979   8.804 -0.2208 -0.1336 -0.2004
 1230SOL    HW1 5131   4.186   7.015   8.798  0.7097 -1.7135  2.3707
 1230SOL    HW2 5132   4.040   7.056   8.805  1.1763  0.9686 -0.9089
 1231SOL     OW 5133   6.277   2.221   8.548 -0.3897 -0.1443  0.2929
 1231SOL    HW1 5134   6.293   2.303   8.595 -0.4610 -0.2191  0.4497
 1231SOL    HW2 5135   6.252   2.159   8.617 -0.3077 -0.3044  0.1802
 1232SOL     OW 5136   0.429   7.602   6.213 -0.6283  0.0436  0.5620
 1232SOL    HW1 5137   0.472   7.597   6.298  0.4828 -1.5722 -0.0548
 1232SOL    HW2 5138   0.376   7.522   6.208 -0.2645 -0.1424 -0.4764
 1233SOL     OW 5139   4.995   6.956  10.667  0.0148 -0.2168  0.0167
 1233SOL    HW1 5140   4.936   6.923  10.736 -0.2546  1.7505  0.8075
 1233SOL    HW2 5141   5.083   6.939  10.701 -0.0834 -1.1861 -0.1692
 1234SOL     OW 5142   0.674   4.493   6.350  0.0915  0.0944 -0.1404
 1234SOL    HW1 5143   0.595   4.486   6.404  0.3148  0.1363  0.1914
 1234SOL    HW2 5144   0.643   4.475   6.261 -0.2923  0.1052 -0.0129
 1235SOL     OW 5145   2.558   1.694   6.851  0.4794 -0.5286 -0.1052
 1235SOL    HW1 5146   2.648   1.716   6.830  0.5943 -0.4461  0.4475
 1235SOL    HW2 5147   2.533   1.629   6.786  0.3858  0.6597 -1.2901
 1236SOL     OW 5148   3.587   7.617  10.729 -0.0956 -0.1617 -0.0202
 1236SOL    HW1 5149   3.597   7.640  10.636  0.0462 -0.1243  0.0048
 1236SOL    HW2 5150   3.499   7.647  10.751 -0.0036  0.1344 -0.0540
 1237SOL     OW 5151   5.944   3.342   0.367 -0.2474  0.7551  0.0235
 1237SOL    HW1 5152   5.989   3.268   0.409  0.2284  1.0988  0.1323
 1237SOL    HW2 5153   5.853   3.315   0.363 -0.2446  0.5626  0.9674
 1238SOL     OW 5154   5.357   0.790   2.492  0.0817  0.6125 -0.0571
 1238SOL    HW1 5155   5.413   0.754   2.424  0.2840  0.9352 -0.0636
 1238SOL    HW2 5156   5.271   0.751   2.476  0.3636 -0.1035  0.1233
 1239SOL     OW 5157   4.389   6.241  11.542  0.1866 -0.6422  0.2808
 1239SOL    HW1 5158   4.388   6.159  11.492  1.2675 -2.0224  2.3610
 1239SOL    HW2 5159   4.477   6.276  11.528 -0.4074  0.4654 -0.9481
 1240SOL     OW 5160   5.494   2.431  10.912  0.4790 -0.0156 -0.0557
 1240SOL    HW1 5161   5.510   2.470  10.998  3.1233 -1.3876  0.2078
 1240SOL    HW2 5162   5.548   2.482  10.852 -1.1402  0.7579 -0.9173
 1241SOL     OW 5163   2.189   1.854  11.516  0.0071  0.4844 -0.1109
 1241SOL    HW1 5164   2.142   1.867  11.434 -1.2368  1.4073  0.7050
 1241SOL    HW2 5165   2.125   1.876  11.584  0.8433 -0.7409  1.1294
 1242SOL     OW 5166   2.759   5.679   9.054 -0.3120 -0.1287  0.3306
 1242SOL    HW1 5167   2.762   5.775   9.046 -0.3668 -0.2510 -1.5879
 1242SOL    HW2 5168   2.665   5.658   9.050 -0.2246 -0.3504 -0.6303
 1243SOL     OW 5169   6.078   2.947   3.363  0.5318  0.0002  0.4371
 1243SOL    HW1 5170   6.114   3.026   3.322 -1.0267 -0.4910 -2.1106
 1243SOL    HW2 5171   6.108   2.876   3.307 -1.5833 -0.7350  0.1594
 1244SOL     OW 5172   1.539   4.687  10.535 -0.0262  0.2831  0.3210
 1244SOL    HW1 5173   1.516   4.651  10.450  0.6537 -1.1429  0.7177
 1244SOL    HW2 5174   1.539   4.612  10.594  3.5569  0.4592  0.7712
 1245SOL     OW 5175   7.573   2.794   8.878 -0.1727 -0.3564 -0.3252
 1245SOL    HW1 5176   7.617   2.803   8.962  0.6784  0.8185 -0.8796
 1245SOL    HW2 5177   7.568   2.883   8.843 -1.5873 -0.6653 -0.9945
 1246SOL     OW 5178   2.621   5.127   9.011 -0.0045 -0.6531 -0.1754
 1246SOL    HW1 5179   2.603   5.098   9.100  1.6973 -0.5317  0.2501
 1246SOL    HW2 5180   2.716   5.133   9.007 -0.1036  0.4767 -1.6474
 1247SOL     OW 5181   6.761   3.003   2.259 -0.4709 -0.1057  0.3693
 1247SOL    HW1 5182   6.784   2.914   2.234  0.7973  0.8384 -2.1425
 1247SOL    HW2 5183   6.689   3.027   2.201 -0.1982  0.8215  0.3963
 1248SOL     OW 5184   0.408   3.894   9.826 -0.5932  0.9360 -0.1251
 1248SOL    HW1 5185   0.418   3.964   9.891  0.4475  0.4770  0.2358
 1248SOL    HW2 5186   0.423   3.936   9.742  1.1396  0.9676  0.1642
 1249SOL     OW 5187   4.350   5.242   3.996  0.7546  0.2916  0.1841
 1249SOL    HW1 5188   4.339   5.295   4.075  0.8861  1.1432 -0.3531
 1249SOL    HW2 5189   4.407   5.170   4.023  1.6673  1.1509  0.6050
 1250SOL     OW 5190   6.604   1.350   0.201  0.0952  0.6686 -0.8341
 1250SOL    HW1 5191   6.592   1.331   0.294  0.8987  0.8548 -0.6800
 1250SOL    HW2 5192   6.683   1.302   0.177  0.5666  1.5633 -1.1180
 1251SOL     OW 5193   7.055   5.660   8.040 -0.1613  0.0954  0.6014
 1251SOL    HW1 5194   7.044   5.748   8.005  1.6484  0.6820  1.3821
 1251SOL    HW2 5195   7.024   5.667   8.131  1.7904  0.5019  1.2897
 1252SOL     OW 5196   0.301   6.816   7.050  0.5326 -0.1773 -0.3201
 1252SOL    HW1 5197   0.309   6.863   7.133  0.9353  0.4288 -0.6976
 1252SOL    HW2 5198   0.367   6.747   7.056  1.2246  0.4497 -0.5131
 1253SOL     OW 5199   0.366   5.848   2.925 -0.1532  0.2734  0.4629
 1253SOL    HW1 5200   0.452   5.866   2.887 -0.1521 -1.5562 -0.4862
 1253SOL    HW2 5201   0.330   5.779   2.870 -0.8026 -1.4259  2.9003
 1254SOL     OW 5202   3.668   5.436   9.603  0.3006  0.4658 -0.2959
 1254SOL    HW1 5203   3.743   5.415   9.548 -0.9597 -2.3581 -1.0820
 1254SOL    HW2 5204   3.696   5.410   9.691  0.6084  0.4251 -0.4028
 1255SOL     OW 5205   1.181   2.750  10.720 -0.4627  0.5065 -0.1547
 1255SOL    HW1 5206   1.204   2.795  10.802 -1.2634  1.4424 -0.4168
 1255SOL    HW2 5207   1.241   2.786  10.656  0.6455 -0.7504  0.1308
 1256SOL     OW 5208   0.327   0.515   1.682 -0.1304  0.2740  0.1471
 1256SOL    HW1 5209   0.256   0.451   1.689 -0.4218  0.7785  2.7973
 1256SOL    HW2 5210   0.397   0.481   1.738  0.8927  0.8307 -0.7445
 1257SOL     OW 5211   7.460   2.961  11.890  0.5738 -0.3086 -0.8018
 1257SOL    HW1 5212   7.528   3.018  11.927  0.7038 -0.4853 -0.7625
 1257SOL    HW2 5213   7.509   2.899  11.835  0.4044 -0.1985 -1.0759
 1258SOL     OW 5214   4.329   6.288   9.001  0.3201 -0.3994 -0.0515
 1258SOL    HW1 5215   4.291   6.222   8.944  1.1789  1.0372 -2.4570
 1258SOL    HW2 5216   4.423   6.273   8.996  0.4935  0.6288 -0.1976
 1259SOL     OW 5217   2.915   0.897   6.736  0.0973 -0.5649 -0.8778
 1259SOL    HW1 5218   2.955   0.972   6.690  0.1254 -1.2305 -1.9812
 1259SOL    HW2 5219   2.969   0.885   6.814  0.1546  0.4974 -0.7416
 1260SOL     OW 5220   3.748   7.814   9.014 -0.4059  0.5800 -0.1328
 1260SOL    HW1 5221   3.727   7.728   8.979  0.9792 -0.2530  0.9472
 1260SOL    HW2 5222   3.825   7.799   9.070  0.0751  2.5717 -0.1706
 1261SOL     OW 5223   1.485   1.961   8.919  0.5862 -0.1696  0.4686
 1261SOL    HW1 5224   1.420   1.927   8.981  0.4237 -1.7031 -0.4844
 1261SOL    HW2 5225   1.563   1.909   8.937 -0.0614 -2.1835 -1.9421
 1262SOL     OW 5226   5.553   4.750   9.095 -0.3943 -0.1574 -0.2645
 1262SOL    HW1 5227   5.502   4.770   9.173 -1.2526  3.2325 -1.5229
 1262SOL    HW2 5228   5.569   4.835   9.054  1.8118 -1.5934 -2.7115
 1263SOL     OW 5229   5.662   5.452   6.491  0.5733  0.2431 -0.2189
 1263SOL    HW1 5230   5.648   5.488   6.578 -1.8992  1.0553 -0.8719
 1263SOL    HW2 5231   5.726   5.510   6.450  1.5169  0.0311  0.9038
 1264SOL     OW 5232   1.299   1.088   6.034 -0.0034  0.3213  0.1640
 1264SOL    HW1 5233   1.257   1.017   6.082  1.3780  0.0994  1.0931
 1264SOL    HW2 5234   1.382   1.103   6.080  0.2515  1.7641 -0.6967
 1265SOL     OW 5235   6.939   0.474   8.269 -0.1073  0.6754 -0.1913
 1265SOL    HW1 5236   6.916   0.564   8.245 -0.2417  0.4705 -0.8346
 1265SOL    HW2 5237   7.034   0.477   8.279 -0.2312  1.1679  0.9942
 1266SOL     OW 5238   3.079   4.494   8.421 -0.2710 -0.2160  0.3636
 1266SOL    HW1 5239   3.162   4.459   8.390 -0.5506  0.6668 -1.5075
 1266SOL    HW2 5240   3.051   4.433   8.490  1.5633 -0.9084  0.5313
 1267SOL     OW 5241   6.611   0.924  11.796 -0.2612  1.0136  0.1848
 1267SOL    HW1 5242   6.516   0.924  11.811  0.0534 -0.5490  2.7213
 1267SOL    HW2 5243   6.646   0.865  11.863  2.5343  1.5676 -0.6617
 1268SOL     OW 5244   6.998   3.789   6.227  0.0022  0.3355  0.0022
 1268SOL    HW1 5245   7.033   3.877   6.238 -0.3827  0.5408 -0.4175
 1268SOL    HW2 5246   7.068   3.741   6.183 -0.2886  0.7880 -0.9751
 1269SOL     OW 5247   1.906   6.437   7.567 -0.0524  0.0862  0.4586
 1269SOL    HW1 5248   1.971   6.507   7.572 -1.5721  1.5342  0.8459
 1269SOL    HW2 5249   1.957   6.359   7.545  1.6172  1.4352 -0.7961
 1270SOL     OW 5250   2.225   5.880  11.480 -0.2890 -0.3494  0.2435
 1270SOL    HW1 5251   2.248   5.847  11.393 -1.0772 -0.6471  0.1324
 1270SOL    HW2 5252   2.136   5.847  11.495  0.0639 -0.8497  1.4273
 1271SOL     OW 5253   1.965   5.893  10.857 -0.5355 -0.4947 -0.3080
 1271SOL    HW1 5254   1.906   5.818  10.865 -0.2201 -0.8966 -1.5772
 1271SOL    HW2 5255   1.915   5.967  10.889 -1.0394 -1.1505  0.4674
 1272SOL     OW 5256   6.015   5.184  11.427 -0.2413 -0.1465  0.1176
 1272SOL    HW1 5257   6.111   5.185  11.435 -0.3993  0.9358  3.3472
 1272SOL    HW2 5258   5.984   5.181  11.517 -3.2712  1.5910 -0.7455
 1273SOL     OW 5259   1.706   0.119   6.101  0.2800 -0.4486  0.1624
 1273SOL    HW1 5260   1.645   0.185   6.135 -1.0496 -0.8533 -1.3584
 1273SOL    HW2 5261   1.754   0.164   6.031  1.1568 -0.3903  0.7779
 1274SOL     OW 5262   5.474   6.400   8.165 -0.0604 -0.4027 -0.1295
 1274SOL    HW1 5263   5.452   6.441   8.248 -0.0928 -0.7295  0.0256
 1274SOL    HW2 5264   5.449   6.465   8.099  2.1994  0.8742  0.1863
 1275SOL     OW 5265   6.312   1.899   2.861 -0.2417 -0.0287 -0.4158
 1275SOL    HW1 5266   6.369   1.921   2.934 -0.0774  0.6117 -0.7358
 1275SOL    HW2 5267   6.274   1.982   2.833  0.9340  0.0123 -2.1008
 1276SOL     OW 5268   2.544   1.681  12.352  0.2716  0.5017 -0.4686
 1276SOL    HW1 5269   2.530   1.608  12.412 -1.5237 -1.0630 -2.6649
 1276SOL    HW2 5270   2.532   1.759  12.407 -1.1352 -0.8356  1.2530
 1277SOL     OW 5271   7.657   6.683   2.828 -0.2111 -0.0283  0.0626
 1277SOL    HW1 5272   7.717   6.706   2.757  0.0736  0.5778  0.4879
 1277SOL    HW2 5273   7.666   6.755   2.891 -0.8846 -0.2678  0.4460
 1278SOL     OW 5274   5.859   7.704   0.122 -0.0363  0.3357 -0.1211
 1278SOL    HW1 5275   5.910   7.624   0.108 -0.6645 -0.2574  0.8342
 1278SOL    HW2 5276   5.841   7.705   0.216  0.0484  1.6713 -0.1047
 1279SOL     OW 5277   3.325   4.587   9.937 -0.0425  0.4667 -0.3055
 1279SOL    HW1 5278   3.324   4.536   9.856  0.7371  1.1707 -0.7723
 1279SOL    HW2 5279   3.369   4.668   9.913  0.2645  0.6495  0.8499
 1280SOL     OW 5280   7.354   2.600  11.876 -0.1223  0.6102 -0.3217
 1280SOL    HW1 5281   7.363   2.597  11.971 -0.9187 -0.8083 -0.2700
 1280SOL    HW2 5282   7.436   2.640  11.845  0.5289  0.2470  0.9003
 1281SOL     OW 5283   7.778   5.701   1.961 -0.4117  0.0437 -0.5847
 1281SOL    HW1 5284   7.820   5.764   1.902  1.4324 -1.2652 -0.7392
 1281SOL    HW2 5285   7.720   5.755   2.015  3.2856  2.5325  1.3993
 1282SOL     OW 5286   7.830   2.970  11.513  0.5027  0.2670  0.3679
 1282SOL    HW1 5287   7.909   2.929  11.477  0.9242  1.0348  0.3894
 1282SOL    HW2 5288   7.807   2.915  11.588  2.6751  1.5489  2.1046
 1283SOL     OW 5289   5.948   7.498  11.232 -0.1648  0.3624  0.4927
 1283SOL    HW1 5290   6.002   7.423  11.259  1.7031  1.6541  0.4781
 1283SOL    HW2 5291   6.010   7.565  11.205 -1.7920  1.9167  0.3992
 1284SOL     OW 5292   5.276   5.636   6.217 -0.1319 -0.1164 -0.3649
 1284SOL    HW1 5293   5.364   5.672   6.220  0.2382 -0.9889 -0.2558
 1284SOL    HW2 5294   5.249   5.643   6.125  0.3991 -0.6357 -0.5646
 1285SOL     OW 5295   1.809   2.880   3.924  0.1361 -0.9891 -0.3403
 1285SOL    HW1 5296   1.863   2.902   4.000  0.4769 -3.7342  0.2940
 1285SOL    HW2 5297   1.848   2.801   3.888 -0.7563 -0.4540 -2.6801
 1286SOL     OW 5298   3.913   7.863   4.060  0.7464 -0.5628  0.5861
 1286SOL    HW1 5299   3.909   7.771   4.086  0.8806 -1.0577 -1.0337
 1286SOL    HW2 5300   3.852   7.908   4.118  0.2819 -1.7685  1.0395
 1287SOL     OW 5301   4.413   6.767   0.687 -0.0605 -0.2636  0.3591
 1287SOL    HW1 5302   4.335   6.749   0.634  2.0136 -3.2899 -2.0296
 1287SOL    HW2 5303   4.453   6.843   0.645 -1.2777  0.9060  1.2115
 1288SOL     OW 5304   5.441   2.115  11.126  0.1641  0.1669 -0.2907
 1288SOL    HW1 5305   5.449   2.105  11.221  0.4175  1.3505 -0.1719
 1288SOL    HW2 5306   5.521   2.077  11.091  0.3796  0.3278  0.0228
 1289SOL     OW 5307   2.499   7.357   6.930 -0.5744  0.7819  0.2368
 1289SOL    HW1 5308   2.466   7.417   6.997 -3.7185 -0.0579 -0.4230
 1289SOL    HW2 5309   2.446   7.375   6.852 -0.5458 -1.7123 -0.4631
 1290SOL     OW 5310   6.399   1.744   4.863  0.0777 -0.1091 -0.0740
 1290SOL    HW1 5311   6.377   1.671   4.920 -2.6468  0.8716  0.2439
 1290SOL    HW2 5312   6.357   1.820   4.903  1.2891  1.3277 -1.3747
 1291SOL     OW 5313   7.341   4.315   1.183 -0.6275  0.1191  0.1891
 1291SOL    HW1 5314   7.380   4.402   1.182  0.4245 -0.3197  0.8744
 1291SOL    HW2 5315   7.285   4.314   1.261 -0.6186  0.1786  0.1965
 1292SOL     OW 5316   7.603   0.954   9.195 -0.4368  0.0585 -0.3375
 1292SOL    HW1 5317   7.601   0.875   9.141 -0.6102  0.6735 -1.2568
 1292SOL    HW2 5318   7.691   0.990   9.183 -0.5789  0.3702 -0.4777
 1293SOL     OW 5319   0.713   4.114  10.904 -0.0711  0.3457 -0.3389
 1293SOL    HW1 5320   0.648   4.047  10.924  0.3880 -0.4199 -1.3400
 1293SOL    HW2 5321   0.792   4.086  10.950  0.1849  0.0744 -0.9374
 1294SOL     OW 5322   4.763   1.168  11.509  0.1341  0.1792  0.1542
 1294SOL    HW1 5323   4.690   1.106  11.507  0.6447 -0.4459  0.4459
 1294SOL    HW2 5324   4.811   1.151  11.427  0.4255 -0.0031  0.3591
 1295SOL     OW 5325   7.100   6.692   4.356 -0.1591  0.2954 -0.1156
 1295SOL    HW1 5326   7.048   6.761   4.315  1.5246  1.2268 -0.7949
 1295SOL    HW2 5327   7.165   6.668   4.289  2.1284  1.2431  1.6263
 1296SOL     OW 5328   6.666   1.373   4.813  0.1259 -0.1223  0.4721
 1296SOL    HW1 5329   6.580   1.389   4.774  0.7756  0.1368 -0.9415
 1296SOL    HW2 5330   6.684   1.280   4.795 -0.5496 -0.6162  2.2389
 1297SOL     OW 5331   7.826   2.066   7.296  0.3967  0.8652 -0.0600
 1297SOL    HW1 5332   7.876   2.076   7.215  0.4960 -2.0253 -0.4554
 1297SOL    HW2 5333   7.882   2.012   7.352  0.0406  2.2350  1.7472
 1298SOL     OW 5334   4.721   3.633   5.131  0.2333 -0.2473 -0.5924
 1298SOL    HW1 5335   4.816   3.625   5.139  0.2291  0.6180  0.6281
 1298SOL    HW2 5336   4.705   3.639   5.037  1.4896  0.6737 -0.7655
 1299SOL     OW 5337   1.518   7.478  12.037  0.3734  0.4484  0.1541
 1299SOL    HW1 5338   1.448   7.516  11.983  1.1010 -0.1744 -1.2814
 1299SOL    HW2 5339   1.489   7.388  12.054  0.9054  0.1187 -0.6303
 1300SOL     OW 5340   2.105   1.571   6.308 -0.5084  0.2439  0.3440
 1300SOL    HW1 5341   2.018   1.534   6.292 -0.2343 -0.5020  0.4963
 1300SOL    HW2 5342   2.159   1.537   6.236  0.0689 -0.8173  1.2369
 1301SOL     OW 5343   3.048   1.973   5.321 -0.4741  0.1482  0.5482
 1301SOL    HW1 5344   3.115   1.976   5.253 -0.0030 -0.6902  0.9708
 1301SOL    HW2 5345   2.973   2.018   5.282 -0.2628 -0.4487 -0.5834
 1302SOL     OW 5346   7.417   7.662   5.575 -0.2009 -0.4952 -0.4597
 1302SOL    HW1 5347   7.411   7.583   5.521  0.7963 -2.3640  1.9737
 1302SOL    HW2 5348   7.505   7.659   5.612 -0.1833  1.7245 -0.2052
 1303SOL     OW 5349   0.520   0.584  11.886 -0.1693  0.2685  0.0249
 1303SOL    HW1 5350   0.491   0.530  11.813  0.0504  1.9698 -1.3605
 1303SOL    HW2 5351   0.561   0.660  11.846  1.2791  0.5713  1.9190
 1304SOL     OW 5352   1.687   0.981   5.200  0.3855 -0.6026  0.2090
 1304SOL    HW1 5353   1.737   1.054   5.162  0.8835 -1.1966 -0.3021
 1304SOL    HW2 5354   1.598   1.015   5.208  0.4240 -0.2081 -0.8207
 1305SOL     OW 5355   1.600   0.493  10.941  0.6802  0.9807  0.2446
 1305SOL    HW1 5356   1.635   0.570  10.986  0.6264  0.9797  0.2892
 1305SOL    HW2 5357   1.586   0.522  10.851  0.1683  1.1787  0.3811
 1306SOL     OW 5358   4.648   3.813   1.747  0.1414 -0.0052 -0.6139
 1306SOL    HW1 5359   4.695   3.745   1.700  1.4217 -0.2338  0.9251
 1306SOL    HW2 5360   4.708   3.888   1.748  1.9048 -1.1767  3.7873
 1307SOL     OW 5361   4.636   3.436  10.191 -0.0297  0.2526 -0.9077
 1307SOL    HW1 5362   4.587   3.404  10.116 -0.0627 -0.1594 -0.7149
 1307SOL    HW2 5363   4.689   3.507  10.157 -0.7575  0.7041 -1.1191
 1308SOL     OW 5364   0.503   6.653   7.136  0.1640 -0.5461  0.0326
 1308SOL    HW1 5365   0.507   6.571   7.087  2.0258 -0.6097  0.2386
 1308SOL    HW2 5366   0.588   6.695   7.122 -0.9113  1.6308 -0.4821
 1309SOL     OW 5367   6.865   1.254   7.024 -0.5400 -0.1163  0.7966
 1309SOL    HW1 5368   6.873   1.236   6.931  0.3337 -0.9276  1.0145
 1309SOL    HW2 5369   6.936   1.316   7.043  0.8213 -1.7706  1.3514
 1310SOL     OW 5370   7.413   0.741   1.804  0.2936 -0.0335 -0.7029
 1310SOL    HW1 5371   7.399   0.835   1.816  0.3091 -0.1974  0.7698
 1310SOL    HW2 5372   7.455   0.712   1.885  0.0520 -1.3589 -1.0245
 1311SOL     OW 5373   1.370   6.385   9.584 -0.1348 -0.5571  0.4677
 1311SOL    HW1 5374   1.282   6.417   9.563 -0.3722 -2.0572 -1.0651
 1311SOL    HW2 5375   1.358   6.327   9.659 -0.2645  0.1474  0.9926
 1312SOL     OW 5376   4.246   0.297   0.605  0.2876 -0.0832 -0.2784
 1312SOL    HW1 5377   4.239   0.389   0.582  0.0690 -0.3622 -1.4102
 1312SOL    HW2 5378   4.180   0.284   0.673  0.0199  0.5003 -0.4213
 1313SOL     OW 5379   1.038   4.415   0.009  0.2562 -0.1700 -0.1217
 1313SOL    HW1 5380   1.112   4.405   0.069 -0.6675  2.5974  1.6865
 1313SOL    HW2 5381   1.036   4.509  -0.011 -0.0532 -0.8104 -3.8805
 1314SOL     OW 5382   3.914   0.177   0.480 -0.0382 -0.2219 -0.0152
 1314SOL    HW1 5383   3.863   0.224   0.547  0.0882 -1.3948  0.9400
 1314SOL    HW2 5384   3.896   0.224   0.399 -0.5927  0.9478  0.7512
 1315SOL     OW 5385   1.141   3.278   2.415 -0.0611 -0.9501 -0.2374
 1315SOL    HW1 5386   1.184   3.300   2.498  1.2278  3.3188 -1.7828
 1315SOL    HW2 5387   1.208   3.232   2.364  1.2856  1.6025 -0.9283
 1316SOL     OW 5388   5.689   7.747   3.002 -0.0025  0.0064 -0.4089
 1316SOL    HW1 5389   5.656   7.818   3.057  1.6163  0.5272 -0.0805
 1316SOL    HW2 5390   5.648   7.668   3.038 -1.4541  0.6938 -0.4922
 1317SOL     OW 5391   5.941   4.206   0.167 -0.7506 -0.1593 -0.3326
 1317SOL    HW1 5392   5.920   4.210   0.074 -1.7145 -0.7319 -0.1507
 1317SOL    HW2 5393   5.882   4.139   0.202  0.8271 -1.2254  0.3796
 1318SOL     OW 5394   5.977   3.114   5.787  0.6952 -0.2592 -0.2454
 1318SOL    HW1 5395   6.009   3.197   5.823  0.4511 -0.4156  0.3497
 1318SOL    HW2 5396   5.925   3.138   5.711  0.1909  0.1764  0.2329
 1319SOL     OW 5397   3.298   4.924  11.324  0.0488  0.2547 -0.8744
 1319SOL    HW1 5398   3.350   4.846  11.344  0.5274  0.4561 -1.3295
 1319SOL    HW2 5399   3.354   4.977  11.268 -0.3660  0.8203 -0.7635
 1320SOL     OW 5400   7.045   2.587   5.739  0.1713  0.6918 -0.1938
 1320SOL    HW1 5401   7.128   2.622   5.705  1.5502 -3.1108 -1.2922
 1320SOL    HW2 5402   7.071   2.512   5.793 -2.5374 -1.6135 -1.8120
 1321SOL     OW 5403   1.660   6.680   8.266 -0.4902  1.2116  0.1358
 1321SOL    HW1 5404   1.701   6.693   8.351 -1.0796  0.9746  0.4622
 1321SOL    HW2 5405   1.702   6.602   8.230 -2.1674 -0.3913  1.4399
 1322SOL     OW 5406   5.167   1.088  11.103  0.2429  0.7792  0.1663
 1322SOL    HW1 5407   5.222   1.098  11.025 -1.1558 -0.9280 -1.1347
 1322SOL    HW2 5408   5.152   0.994  11.109 -0.2964  0.9609  2.0915
 1323SOL     OW 5409   1.130   7.139   8.707  0.0255 -0.2114 -0.2054
 1323SOL    HW1 5410   1.137   7.136   8.802 -0.8781  1.0567 -0.0607
 1323SOL    HW2 5411   1.036   7.144   8.690  0.0065 -2.6772 -1.3000
 1324SOL     OW 5412   1.389   4.744   7.769  0.1925 -0.0702 -0.4002
 1324SOL    HW1 5413   1.425   4.827   7.800  0.4456 -0.7069  1.1346
 1324SOL    HW2 5414   1.462   4.682   7.775  0.5493 -0.0708 -3.3042
 1325SOL     OW 5415   6.574   1.280   6.528 -0.0716  0.0982 -0.4771
 1325SOL    HW1 5416   6.481   1.261   6.535  0.3631 -1.8529  0.5900
 1325SOL    HW2 5417   6.596   1.321   6.612 -0.2940  2.4035 -1.4580
 1326SOL     OW 5418   5.114   2.813   8.854  0.3557 -0.2046  0.1988
 1326SOL    HW1 5419   5.160   2.731   8.835 -0.4600 -0.8454  0.8723
 1326SOL    HW2 5420   5.035   2.785   8.901 -0.4798  0.8951 -0.5160
 1327SOL     OW 5421   6.715   1.140   5.653  0.3464 -0.2525 -0.1663
 1327SOL    HW1 5422   6.662   1.220   5.643 -1.1034 -1.0543  0.7086
 1327SOL    HW2 5423   6.796   1.170   5.694  0.2359  0.8962 -0.7328
 1328SOL     OW 5424   2.156   7.196   9.449  0.2626  0.8023 -0.2810
 1328SOL    HW1 5425   2.211   7.182   9.526 -0.8549 -0.7967  0.3042
 1328SOL    HW2 5426   2.083   7.134   9.461  0.0922  0.4509 -2.6544
 1329SOL     OW 5427   1.829   2.028   3.978 -0.0834 -0.3073 -0.5236
 1329SOL    HW1 5428   1.784   2.052   3.897  2.3178  2.6231 -1.1552
 1329SOL    HW2 5429   1.912   1.990   3.949  0.6085  0.3523  0.5237
 1330SOL     OW 5430   2.311   1.890   2.171  0.2207 -0.5132 -0.6155
 1330SOL    HW1 5431   2.320   1.979   2.136 -0.1504 -1.1066 -2.3111
 1330SOL    HW2 5432   2.373   1.886   2.243 -0.6240  1.5113  0.3103
 1331SOL     OW 5433   2.883   0.428  11.362  0.1465  0.0189  0.0474
 1331SOL    HW1 5434   2.965   0.398  11.324  0.0552 -0.6512  0.3674
 1331SOL    HW2 5435   2.896   0.522  11.375  0.2392  0.2359 -1.4615
 1332SOL     OW 5436   3.078   0.024   9.556 -0.3265  0.3468 -0.0208
 1332SOL    HW1 5437   3.132   0.068   9.621  0.1078 -1.4081  0.8829
 1332SOL    HW2 5438   3.133   0.022   9.477 -0.6959  2.1187 -0.3638
 1333SOL     OW 5439   4.670   1.751   1.956 -0.2638 -0.0437  0.3611
 1333SOL    HW1 5440   4.609   1.798   2.014  0.2261  0.7763  0.2288
 1333SOL    HW2 5441   4.614   1.712   1.889 -0.7426 -0.1881  0.8324
 1334SOL     OW 5442   7.793   1.368  10.555 -0.0118  0.5592 -0.7211
 1334SOL    HW1 5443   7.703   1.396  10.541  0.2847  0.7232 -2.6169
 1334SOL    HW2 5444   7.801   1.285  10.506  0.8926  0.6284 -0.7227
 1335SOL     OW 5445   1.403   6.109   7.014 -0.0933  0.2886  0.2455
 1335SOL    HW1 5446   1.319   6.142   6.982  0.4067  1.3234 -0.0471
 1335SOL    HW2 5447   1.465   6.127   6.944 -0.0575 -2.9783 -0.7429
 1336SOL     OW 5448   6.712   0.288  10.095  0.3221  0.0475 -0.0723
 1336SOL    HW1 5449   6.760   0.371  10.095  0.5807 -0.1019 -0.1035
 1336SOL    HW2 5450   6.765   0.230  10.150  0.8141 -0.4816 -1.0842
 1337SOL     OW 5451   3.693   1.937  10.710  0.1074 -0.6050  0.6452
 1337SOL    HW1 5452   3.719   2.018  10.754 -0.8557 -0.2798  0.6425
 1337SOL    HW2 5453   3.620   1.903  10.763  0.8816 -1.7934  0.9896
 1338SOL     OW 5454   7.431   3.248   3.018 -0.8665 -0.2358  0.5266
 1338SOL    HW1 5455   7.465   3.301   2.946  0.8075 -1.2552  0.5358
 1338SOL    HW2 5456   7.470   3.286   3.097  0.1344 -1.2695  0.5556
 1339SOL     OW 5457   0.700   7.062   7.390 -0.5964 -0.0220  0.4257
 1339SOL    HW1 5458   0.698   7.122   7.315 -0.0746 -0.4345  0.0802
 1339SOL    HW2 5459   0.787   7.024   7.388  0.5291  2.1144  2.9572
 1340SOL     OW 5460   5.562   3.854   6.544  0.4532  0.3499  0.4846
 1340SOL    HW1 5461   5.504   3.784   6.573  1.6850 -0.1391  1.8434
 1340SOL    HW2 5462   5.593   3.895   6.625  0.0915  2.2045 -0.2708
 1341SOL     OW 5463   6.258   5.277   0.842  0.6297  0.2607 -0.3702
 1341SOL    HW1 5464   6.204   5.287   0.921  0.8891 -2.7428  0.3168
 1341SOL    HW2 5465   6.196   5.249   0.774  0.8111  0.2482 -0.5302
 1342SOL     OW 5466   6.146   1.808   8.835 -0.0918  0.0689  0.1773
 1342SOL    HW1 5467   6.158   1.899   8.864 -0.4365  0.4162 -0.7661
 1342SOL    HW2 5468   6.233   1.769   8.846 -0.2167  0.1504  1.7627
 1343SOL     OW 5469   6.397   4.890   5.925 -0.8139 -0.2224 -0.1041
 1343SOL    HW1 5470   6.376   4.918   5.836 -1.0541  1.9727  0.5887
 1343SOL    HW2 5471   6.436   4.967   5.966  0.2530 -1.4946  1.4077
 1344SOL     OW 5472   5.417   6.178   6.382 -0.3279  0.0954 -0.0815
 1344SOL    HW1 5473   5.478   6.243   6.414  1.0788 -1.3073  0.2186
 1344SOL    HW2 5474   5.426   6.104   6.442  0.2145 -1.4583 -1.9592
 1345SOL     OW 5475   6.137   2.019  10.754 -0.1708 -0.6016  0.2960
 1345SOL    HW1 5476   6.116   2.113  10.758  0.7134 -0.4219  1.1412
 1345SOL    HW2 5477   6.055   1.975  10.776 -0.2675  0.0201  1.2594
 1346SOL     OW 5478   5.324   4.433  11.918 -0.3018  0.0907 -0.7518
 1346SOL    HW1 5479   5.331   4.529  11.922  0.6484  0.0722 -1.4917
 1346SOL    HW2 5480   5.231   4.416  11.929 -0.2972  0.9796  1.1953
 1347SOL     OW 5481   5.021   0.503  11.532  0.5411 -0.3765  0.2944
 1347SOL    HW1 5482   4.954   0.570  11.525  1.3199  0.4203  0.2352
 1347SOL    HW2 5483   4.985   0.427  11.486  1.0139  1.1103 -2.7734
 1348SOL     OW 5484   6.065   7.314   7.011 -0.2191 -0.2094 -0.3439
 1348SOL    HW1 5485   5.980   7.293   7.051  0.4230 -0.3072  1.0316
 1348SOL    HW2 5486   6.124   7.323   7.085  1.1824 -1.0221 -1.3227
 1349SOL     OW 5487   1.903   7.588   2.945  0.4560 -0.0219  0.0626
 1349SOL    HW1 5488   1.825   7.609   2.893 -0.5083  0.5056  1.6650
 1349SOL    HW2 5489   1.972   7.574   2.880 -1.0470 -0.9062 -1.4263
 1350SOL     OW 5490   4.204   5.744   8.334  0.4769  0.9583 -0.1507
 1350SOL    HW1 5491   4.137   5.809   8.314 -0.6337 -0.2386 -0.5354
 1350SOL    HW2 5492   4.158   5.660   8.326  1.5814  0.1643  1.3457
 1351SOL     OW 5493   1.817   5.854   7.373  0.3509  0.0565  0.1355
 1351SOL    HW1 5494   1.890   5.796   7.396  1.0668  1.7439  2.5510
 1351SOL    HW2 5495   1.771   5.869   7.456 -1.4890  0.7179 -0.9493
 1352SOL     OW 5496   2.570   3.560   3.529 -0.1313 -0.4294  0.3442
 1352SOL    HW1 5497   2.556   3.653   3.513 -0.7812 -0.5795  0.0396
 1352SOL    HW2 5498   2.615   3.558   3.614 -0.5901  0.1349  0.6106
 1353SOL     OW 5499   1.343   2.453   5.803 -0.0964  0.4340  0.1371
 1353SOL    HW1 5500   1.354   2.501   5.885  1.5581  2.3018 -1.0977
 1353SOL    HW2 5501   1.263   2.490   5.765 -0.3509  0.2166  0.4450
 1354SOL     OW 5502   0.511   6.290   6.775 -0.1596  0.3248 -0.5251
 1354SOL    HW1 5503   0.432   6.313   6.824 -0.8274 -0.2530 -1.3043
 1354SOL    HW2 5504   0.525   6.197   6.794  0.1851  0.3580 -0.6040
 1355SOL     OW 5505   6.177   0.884   5.544  0.0411 -0.1821  0.2164
 1355SOL    HW1 5506   6.222   0.821   5.487  0.0080 -0.6967  0.7425
 1355SOL    HW2 5507   6.245   0.913   5.605  0.0836  0.3852 -0.0981
 1356SOL     OW 5508   5.939   4.675  10.202 -0.0650 -0.2222  0.4801
 1356SOL    HW1 5509   6.005   4.742  10.218 -0.7359  0.0328  2.4707
 1356SOL    HW2 5510   5.856   4.717  10.225 -0.3954 -2.0398  3.0082
 1357SOL     OW 5511   5.196   3.844  12.131 -0.1106  0.2324 -0.6670
 1357SOL    HW1 5512   5.179   3.845  12.225 -0.1812  0.3502 -0.6799
 1357SOL    HW2 5513   5.230   3.756  12.113 -0.0667  0.2208 -0.5266
 1358SOL     OW 5514   4.976   0.705  11.262 -1.1081  0.0850  0.1533
 1358SOL    HW1 5515   4.967   0.721  11.356  0.3135  0.4889  0.2396
 1358SOL    HW2 5516   4.913   0.635  11.244 -1.0146 -0.3898  1.5158
 1359SOL     OW 5517   5.051   4.773   5.023 -0.5352  0.7407 -0.4453
 1359SOL    HW1 5518   5.036   4.686   5.061 -1.7069  0.8143 -0.6916
 1359SOL    HW2 5519   5.107   4.818   5.086 -0.4587  0.0285  0.0010
 1360SOL     OW 5520   4.054   6.991   6.908  0.6444  0.2508  0.2934
 1360SOL    HW1 5521   4.121   7.051   6.877 -0.1427  0.8297 -0.3296
 1360SOL    HW2 5522   4.007   6.964   6.829 -0.1669  0.2363  0.7659
 1361SOL     OW 5523   0.495   0.101   9.904 -0.0936  0.0020  0.4093
 1361SOL    HW1 5524   0.474   0.159   9.831  1.9241 -0.2841 -0.4687
 1361SOL    HW2 5525   0.421   0.109   9.963 -0.1704  2.9974  0.0530
 1362SOL     OW 5526   6.681   1.777   7.288 -0.1892 -0.6134  0.5123
 1362SOL    HW1 5527   6.750   1.823   7.239  0.2303 -0.9841  0.7465
 1362SOL    HW2 5528   6.600   1.822   7.263  0.1160 -0.2763  0.1068
 1363SOL     OW 5529   0.764   6.602   0.108  0.0441  0.5351 -0.2231
 1363SOL    HW1 5530   0.702   6.585   0.038  1.5209 -0.3283 -1.3664
 1363SOL    HW2 5531   0.749   6.532   0.171 -0.4344  0.6025 -0.2564
 1364SOL     OW 5532   0.845   7.211   0.723 -0.0762  0.4033 -0.4200
 1364SOL    HW1 5533   0.899   7.138   0.693 -1.4256 -0.7458 -0.1685
 1364SOL    HW2 5534   0.905   7.285   0.727  1.8541 -1.1322  1.3037
 1365SOL     OW 5535   0.208   7.718  10.793 -0.8134 -0.2497 -0.2010
 1365SOL    HW1 5536   0.227   7.698  10.885 -1.0462 -0.4798 -0.2020
 1365SOL    HW2 5537   0.286   7.690  10.746 -0.6029  0.0762 -0.0464
 1366SOL     OW 5538   7.893   4.531   8.082  0.5761  0.1785  0.7297
 1366SOL    HW1 5539   7.962   4.465   8.080 -0.3120 -0.7485 -0.6595
 1366SOL    HW2 5540   7.860   4.534   7.992  0.2093  2.1215  0.8849
 1367SOL     OW 5541   7.106   0.001   0.953 -0.3124 -0.1879 -0.4873
 1367SOL    HW1 5542   7.136  -0.070   1.011 -0.3503 -1.0347 -1.4673
 1367SOL    HW2 5543   7.039  -0.040   0.898  1.2109 -0.0220 -2.5945
 1368SOL     OW 5544   7.644   5.380   3.997 -0.2938 -0.2443 -0.3607
 1368SOL    HW1 5545   7.607   5.293   4.010 -0.5813  0.0686  1.1004
 1368SOL    HW2 5546   7.608   5.409   3.914  0.6971 -1.9573 -1.4396
 1369SOL     OW 5547   2.776   1.613   2.224 -0.2421  0.2963  0.0195
 1369SOL    HW1 5548   2.837   1.684   2.244 -0.0810  0.8556 -2.1842
 1369SOL    HW2 5549   2.748   1.630   2.134 -1.6763 -1.3863  0.0898
 1370SOL     OW 5550   3.426   3.572  10.068  0.3666  0.5386  1.1546
 1370SOL    HW1 5551   3.446   3.533   9.983  0.2356 -0.0871  1.4045
 1370SOL    HW2 5552   3.410   3.664  10.049  0.8775  0.5164  0.5788
 1371SOL     OW 5553   7.138   5.927   8.295  0.1696 -0.0986 -0.0953
 1371SOL    HW1 5554   7.176   5.883   8.372 -2.0210 -0.5183  0.8173
 1371SOL    HW2 5555   7.044   5.913   8.304 -0.1588 -0.3103 -2.9806
 1372SOL     OW 5556   2.593   4.541   7.505  0.8289 -0.1614  0.0394
 1372SOL    HW1 5557   2.530   4.524   7.576  0.9993 -0.4759  0.1179
 1372SOL    HW2 5558   2.585   4.465   7.448  2.1125 -0.8811  0.7661
 1373SOL     OW 5559   5.530   1.140   0.705  0.3940  0.3054  0.1220
 1373SOL    HW1 5560   5.523   1.233   0.679  1.1621 -0.2473 -2.3617
 1373SOL    HW2 5561   5.608   1.136   0.760  1.0220  0.9873 -0.6886
 1374SOL     OW 5562   7.877   2.243   6.349 -0.1919  0.2541 -0.4689
 1374SOL    HW1 5563   7.802   2.218   6.402  0.5241 -1.7132 -0.2957
 1374SOL    HW2 5564   7.951   2.243   6.410  0.3511 -0.3027 -1.1019
 1375SOL     OW 5565   6.805   2.905   0.475 -0.0380  0.5009  0.2091
 1375SOL    HW1 5566   6.712   2.890   0.458  0.1156 -2.8731  1.5959
 1375SOL    HW2 5567   6.843   2.924   0.389 -1.8898  1.7158 -0.4105
 1376SOL     OW 5568   3.697   5.949   5.713 -0.0392 -0.5822 -0.7300
 1376SOL    HW1 5569   3.731   5.937   5.802 -0.9650 -1.5282 -0.4884
 1376SOL    HW2 5570   3.612   5.991   5.725 -1.2486 -2.7779 -0.9672
 1377SOL     OW 5571   7.440   4.000  12.349  0.2504  0.6615 -0.0342
 1377SOL    HW1 5572   7.404   3.961  12.429  2.8283 -1.5874  0.1678
 1377SOL    HW2 5573   7.510   4.058  12.381  0.2840  0.9277 -0.5855
 1378SOL     OW 5574   3.008   6.347   5.202  0.4178  0.1856 -0.2090
 1378SOL    HW1 5575   3.029   6.400   5.125 -1.0413  1.3632  0.1627
 1378SOL    HW2 5576   2.987   6.261   5.166 -1.2012  0.9660 -1.2703
 1379SOL     OW 5577   4.967   7.710   4.190  0.4335  0.5912  0.1302
 1379SOL    HW1 5578   4.947   7.781   4.251  0.3463 -0.1893  1.0374
 1379SOL    HW2 5579   5.061   7.718   4.174  0.4328  0.8779  0.2596
 1380SOL     OW 5580   2.700   6.893   6.231  0.2802  0.3187 -0.2471
 1380SOL    HW1 5581   2.748   6.975   6.225  1.9542 -0.4027  2.0572
 1380SOL    HW2 5582   2.764   6.829   6.263 -1.4099 -1.4619 -0.2227
 1381SOL     OW 5583   2.288   3.294  12.262 -0.1557  0.0797  0.5644
 1381SOL    HW1 5584   2.262   3.212  12.219  0.0503  0.5036 -0.4081
 1381SOL    HW2 5585   2.324   3.347  12.191  1.7963  0.1691  1.5586
 1382SOL     OW 5586   3.833   0.580   4.236  0.1515  0.5177  0.3024
 1382SOL    HW1 5587   3.905   0.620   4.187  0.0194 -0.2938 -0.5814
 1382SOL    HW2 5588   3.792   0.654   4.281 -0.0183  1.3884 -1.1843
 1383SOL     OW 5589   1.464   7.376   2.265  0.3060 -0.2004 -0.6331
 1383SOL    HW1 5590   1.488   7.441   2.200  0.0336  1.1985  0.6116
 1383SOL    HW2 5591   1.428   7.427   2.338  2.4640 -1.4886  1.4862
 1384SOL     OW 5592   5.485   4.792   7.792 -0.1733 -0.0146  0.1610
 1384SOL    HW1 5593   5.573   4.796   7.754  0.3716 -2.0727  1.0402
 1384SOL    HW2 5594   5.434   4.740   7.731 -0.0391 -1.0126  0.8668
 1385SOL     OW 5595   7.595   5.410   9.170 -0.0575  0.0523 -0.3351
 1385SOL    HW1 5596   7.664   5.456   9.219 -0.0698  0.5399 -0.7653
 1385SOL    HW2 5597   7.643   5.352   9.110 -0.0207  0.2194 -0.4697
 1386SOL     OW 5598   5.764   2.138   5.677 -0.0359 -0.1859  0.4253
 1386SOL    HW1 5599   5.797   2.071   5.737 -0.3979 -0.2052  0.6038
 1386SOL    HW2 5600   5.819   2.214   5.694  0.8152 -0.6348 -0.2464
 1387SOL     OW 5601   1.144   1.717   3.234  0.2301  0.1657 -0.3180
 1387SOL    HW1 5602   1.169   1.680   3.319  0.1062 -0.5072 -0.5717
 1387SOL    HW2 5603   1.091   1.649   3.192  2.0243 -0.3966 -1.8265
 1388SOL     OW 5604   7.336   7.518   8.792  0.4749 -0.2044 -0.0772
 1388SOL    HW1 5605   7.363   7.511   8.883  1.4597  1.5557 -0.1744
 1388SOL    HW2 5606   7.417   7.539   8.745 -0.3564  1.0668 -1.0150
 1389SOL     OW 5607   1.965   2.061   8.430  0.0695 -0.4903  0.0275
 1389SOL    HW1 5608   1.993   2.138   8.380  0.5841 -0.8810 -0.2933
 1389SOL    HW2 5609   2.030   2.054   8.501 -0.2001 -0.4031  0.2856
 1390SOL     OW 5610   1.941   0.489   6.030  0.4837 -0.2491  0.3770
 1390SOL    HW1 5611   1.931   0.427   6.103 -0.0640  0.5258  0.9727
 1390SOL    HW2 5612   1.967   0.571   6.072  1.7430 -0.1888 -0.4568
 1391SOL     OW 5613   6.325   1.663  10.358 -0.3553 -0.4992 -0.6157
 1391SOL    HW1 5614   6.327   1.746  10.311 -0.4373  0.2673  0.6829
 1391SOL    HW2 5615   6.249   1.617  10.323 -0.8654  0.3816 -0.6948
 1392SOL     OW 5616   5.526   1.437   9.135 -0.0202 -0.2122 -0.5003
 1392SOL    HW1 5617   5.493   1.480   9.214  1.3577  0.0445 -0.0357
 1392SOL    HW2 5618   5.451   1.389   9.100 -1.2737  1.5283 -0.3201
 1393SOL     OW 5619   4.392   1.986  10.598  0.2878  0.4670  0.1512
 1393SOL    HW1 5620   4.382   1.892  10.610 -3.9551  0.9110  2.0577
 1393SOL    HW2 5621   4.402   1.998  10.504 -0.1554 -1.8397 -0.2423
 1394SOL     OW 5622   7.370   3.474   7.094 -0.0846 -1.0589 -0.5987
 1394SOL    HW1 5623   7.344   3.455   7.004 -2.6297 -1.5966  0.1444
 1394SOL    HW2 5624   7.339   3.398   7.144 -3.0845  1.1876  1.3127
 1395SOL     OW 5625   5.091   1.899   8.765  0.4154  0.0538  0.3770
 1395SOL    HW1 5626   5.127   1.923   8.680 -0.1776 -1.1434 -0.2301
 1395SOL    HW2 5627   5.124   1.967   8.825  0.9013  0.8635 -0.7767
 1396SOL     OW 5628   1.679   2.772  10.507  0.0398  0.2222  0.5658
 1396SOL    HW1 5629   1.730   2.735  10.435 -0.2384  0.0083  0.4754
 1396SOL    HW2 5630   1.732   2.757  10.585 -0.0201 -0.2721  0.5144
 1397SOL     OW 5631   4.750   0.428   2.326 -0.5023 -0.2195 -0.4613
 1397SOL    HW1 5632   4.685   0.459   2.262 -0.6565 -0.9335 -0.6613
 1397SOL    HW2 5633   4.698   0.387   2.395 -0.4476  1.9766  0.9790
 1398SOL     OW 5634   0.390   0.399  10.033 -0.3772  0.2045 -0.8046
 1398SOL    HW1 5635   0.471   0.349  10.018 -0.7215 -0.4130 -0.6341
 1398SOL    HW2 5636   0.328   0.362   9.970 -0.7887  0.0600 -0.3136
 1399SOL     OW 5637   1.610   7.552  11.351  0.5667  0.6975 -0.2900
 1399SOL    HW1 5638   1.620   7.460  11.374  0.2914  0.5653 -0.6922
 1399SOL    HW2 5639   1.518   7.572  11.369  0.6593  0.9298 -0.0724
 1400SOL     OW 5640   7.772   7.326  10.603  0.1031 -0.0388  0.0595
 1400SOL    HW1 5641   7.791   7.261  10.536  0.6317 -1.6793  1.7228
 1400SOL    HW2 5642   7.687   7.301  10.638  1.3061 -1.3247  2.2806
 1401SOL     OW 5643   3.912   6.584   1.137  0.0689  0.2125  0.1506
 1401SOL    HW1 5644   3.839   6.642   1.156  0.2063  0.0625  1.1628
 1401SOL    HW2 5645   3.975   6.599   1.207  1.4872  1.0828 -1.2276
 1402SOL     OW 5646   0.249   7.122   7.896  0.1259 -0.2010 -0.2501
 1402SOL    HW1 5647   0.282   7.152   7.812  1.3586  0.7866  0.5418
 1402SOL    HW2 5648   0.282   7.186   7.959  1.2345 -2.1853  1.3074
 1403SOL     OW 5649   6.286   2.676   9.551 -0.2480  0.0830 -0.4814
 1403SOL    HW1 5650   6.230   2.682   9.474 -2.3775  0.4829  1.0060
 1403SOL    HW2 5651   6.270   2.588   9.587 -1.9412  1.0570  1.3348
 1404SOL     OW 5652   1.963   1.402   0.897 -0.7727  0.0370 -0.9419
 1404SOL    HW1 5653   2.008   1.339   0.841 -0.6686  0.2748 -1.1280
 1404SOL    HW2 5654   1.993   1.488   0.866  1.0944  0.1599  0.9271
 1405SOL     OW 5655   1.004   5.207  10.382  0.6882 -0.3792  0.3441
 1405SOL    HW1 5656   1.092   5.244  10.383  0.3768  0.3953  0.3314
 1405SOL    HW2 5657   1.001   5.149  10.458  0.8681  0.4366  0.9974
 1406SOL     OW 5658   4.418   0.777   3.107  0.2138  0.1253  0.1566
 1406SOL    HW1 5659   4.370   0.750   3.029 -1.7144 -0.6343  1.5376
 1406SOL    HW2 5660   4.350   0.797   3.172  1.7420 -0.8009  2.1424
 1407SOL     OW 5661   7.011   3.123   7.702 -0.3185 -0.1209  0.2260
 1407SOL    HW1 5662   7.013   3.190   7.771 -0.8246  0.7725 -0.5929
 1407SOL    HW2 5663   7.017   3.173   7.620  1.4185 -1.2191 -0.3793
 1408SOL     OW 5664   0.794   3.372   8.991 -0.7761 -0.5435  0.1019
 1408SOL    HW1 5665   0.860   3.333   8.934 -0.4313 -0.6020  0.5342
 1408SOL    HW2 5666   0.806   3.466   8.981 -1.9686 -0.5057 -1.3625
 1409SOL     OW 5667   2.408   3.727   1.054  0.0773  0.6929 -0.1173
 1409SOL    HW1 5668   2.374   3.747   0.967  0.1021  1.6868  0.0977
 1409SOL    HW2 5669   2.334   3.741   1.113 -0.4181 -1.5522 -0.1216
 1410SOL     OW 5670   7.426   5.151  10.985  0.2249 -0.3783 -0.5331
 1410SOL    HW1 5671   7.418   5.233  10.936 -2.2314 -1.2650 -1.7345
 1410SOL    HW2 5672   7.462   5.179  11.070  1.1905  1.6633 -1.5270
 1411SOL     OW 5673   0.986   6.496   4.533 -0.4000 -0.4103 -0.3801
 1411SOL    HW1 5674   1.001   6.568   4.472  0.2900 -0.5443 -0.3673
 1411SOL    HW2 5675   0.936   6.536   4.605 -3.0904 -0.6719 -1.9488
 1412SOL     OW 5676   6.774   6.833   7.837  0.1213  0.2654  0.3111
 1412SOL    HW1 5677   6.771   6.885   7.756  0.3749 -2.3288 -1.4968
 1412SOL    HW2 5678   6.709   6.764   7.823  0.1082 -0.2016  2.4079
 1413SOL     OW 5679   2.977   5.587   7.013  0.1714  0.2290  0.3960
 1413SOL    HW1 5680   3.050   5.646   6.992 -0.2487  0.2919 -0.9541
 1413SOL    HW2 5681   2.899   5.638   6.992 -0.2683  0.0225  1.4758
 1414SOL     OW 5682   6.784   4.883   6.690  0.4106 -0.5614 -0.0489
 1414SOL    HW1 5683   6.853   4.907   6.627  0.6844 -1.2903 -0.0342
 1414SOL    HW2 5684   6.720   4.835   6.638  1.4579 -2.6850  0.5057
 1415SOL     OW 5685   2.748   4.746   8.644  0.8227  0.1800  0.4465
 1415SOL    HW1 5686   2.698   4.677   8.601 -0.5214  2.4738 -1.9462
 1415SOL    HW2 5687   2.703   4.761   8.727 -0.1681 -0.3465  0.0158
 1416SOL     OW 5688   1.746   0.893   3.870  0.5551 -0.3804 -0.1173
 1416SOL    HW1 5689   1.792   0.929   3.946 -0.2667 -0.2546  0.3294
 1416SOL    HW2 5690   1.697   0.819   3.905  2.6238 -2.3383 -1.1064
 1417SOL     OW 5691   4.793   2.199   6.482  0.4718  0.1795  0.5865
 1417SOL    HW1 5692   4.804   2.290   6.456  2.1100  0.2274  1.2909
 1417SOL    HW2 5693   4.882   2.163   6.479 -0.0265 -1.1614  1.1682
 1418SOL     OW 5694   6.094   7.811   0.009 -0.3726  0.3602 -0.0676
 1418SOL    HW1 5695   6.042   7.830   0.088 -1.4604  0.1872 -0.7218
 1418SOL    HW2 5696   6.099   7.715   0.007 -1.9427  0.2606 -1.1731
 1419SOL     OW 5697   1.114   7.195   7.911  0.2458  0.3487  0.2662
 1419SOL    HW1 5698   1.164   7.243   7.976 -0.5010 -0.0038  1.1193
 1419SOL    HW2 5699   1.120   7.248   7.831  3.2132 -0.3940 -0.1371
 1420SOL     OW 5700   3.388   7.721   3.308 -0.5162 -0.1885 -0.2759
 1420SOL    HW1 5701   3.437   7.743   3.229 -1.1807  1.0968 -0.3484
 1420SOL    HW2 5702   3.316   7.666   3.277 -0.2851 -0.3980 -0.4433
 1421SOL     OW 5703   1.461   1.853   3.493  0.2243  0.0147  0.1333
 1421SOL    HW1 5704   1.512   1.809   3.561 -1.6463 -0.5519  1.2389
 1421SOL    HW2 5705   1.443   1.940   3.529  0.3813  0.2115 -0.2521
 1422SOL     OW 5706   1.169   3.237   1.823 -0.4728  0.1928 -0.6068
 1422SOL    HW1 5707   1.206   3.239   1.911  1.3561  0.7682 -1.3404
 1422SOL    HW2 5708   1.124   3.153   1.817  0.2941 -0.3184  0.5226
 1423SOL     OW 5709   0.538   5.318   3.393  1.0349  0.3557  0.6818
 1423SOL    HW1 5710   0.479   5.284   3.459  2.0046  0.3761  1.5835
 1423SOL    HW2 5711   0.512   5.410   3.383  0.1710  0.0692  0.2127
 1424SOL     OW 5712   7.480   4.607  11.362 -0.3200  0.1617  0.0315
 1424SOL    HW1 5713   7.467   4.563  11.278  1.9536  1.6249 -1.1977
 1424SOL    HW2 5714   7.488   4.536  11.425 -1.1174 -1.0219 -1.1527
 1425SOL     OW 5715   5.544   0.387  11.582 -0.5504  0.3966 -0.2653
 1425SOL    HW1 5716   5.468   0.441  11.561  0.1410  1.2618 -0.6049
 1425SOL    HW2 5717   5.602   0.446  11.630  1.4073  0.8257 -2.9200
 1426SOL     OW 5718   7.817   6.078   1.578 -0.3486  0.2602  0.1116
 1426SOL    HW1 5719   7.865   6.009   1.532  0.7634  0.5336  0.8116
 1426SOL    HW2 5720   7.741   6.096   1.523  0.0731 -0.5638 -0.7651
 1427SOL     OW 5721   5.993   1.121  10.981  0.1296  0.5118 -0.3216
 1427SOL    HW1 5722   5.897   1.131  10.978  0.2496  1.7475 -0.8462
 1427SOL    HW2 5723   6.014   1.122  11.075 -0.3801  0.1410 -0.2005
 1428SOL     OW 5724   6.619   5.503  11.214  0.3119 -0.1144 -0.3656
 1428SOL    HW1 5725   6.592   5.441  11.146  3.6770 -0.7936 -1.2542
 1428SOL    HW2 5726   6.626   5.449  11.293  0.8317 -0.3481 -0.5660
 1429SOL     OW 5727   2.949   3.566  11.858 -0.1261 -1.1202  0.0060
 1429SOL    HW1 5728   2.865   3.613  11.855  0.7521  0.5503  0.0570
 1429SOL    HW2 5729   2.989   3.585  11.773  0.4784 -1.3250  0.2396
 1430SOL     OW 5730   7.913   1.134   6.720 -0.3217  0.0394  0.3127
 1430SOL    HW1 5731   7.910   1.229   6.721 -1.2863  0.0294 -0.0935
 1430SOL    HW2 5732   8.004   1.112   6.739 -0.2243  1.0218  1.0783
 1431SOL     OW 5733   7.763   1.885   1.737  0.4804 -0.5003  0.1146
 1431SOL    HW1 5734   7.699   1.947   1.772  0.5499 -1.0111  1.2107
 1431SOL    HW2 5735   7.710   1.812   1.706  0.4089  0.0175 -1.0192
 1432SOL     OW 5736   1.726   3.366   2.126 -0.8111 -0.4882 -0.1393
 1432SOL    HW1 5737   1.639   3.342   2.092 -1.5889 -0.2742  1.5893
 1432SOL    HW2 5738   1.785   3.350   2.053 -2.2600 -0.9634 -1.2659
 1433SOL     OW 5739   2.310   4.772   3.746 -0.5086 -0.2554 -0.1709
 1433SOL    HW1 5740   2.228   4.726   3.729 -2.1514  2.7057 -1.1142
 1433SOL    HW2 5741   2.291   4.827   3.822  0.5447  0.5055 -0.4304
 1434SOL     OW 5742   3.129   4.796  12.219 -0.4659  0.4104 -0.4459
 1434SOL    HW1 5743   3.160   4.857  12.152 -2.2645  1.5988 -0.2497
 1434SOL    HW2 5744   3.204   4.738  12.235  1.8953  3.4955  0.5244
 1435SOL     OW 5745   1.818   3.965   7.219 -0.0255  0.2911 -0.2965
 1435SOL    HW1 5746   1.783   3.985   7.132 -2.0821  0.8529  0.5761
 1435SOL    HW2 5747   1.758   3.899   7.254  1.5346 -0.8974  0.2274
 1436SOL     OW 5748   1.577   3.459   4.396 -0.1710 -0.4817  0.3190
 1436SOL    HW1 5749   1.539   3.477   4.483 -1.9203 -0.2754 -0.4474
 1436SOL    HW2 5750   1.562   3.366   4.382 -1.1919 -0.2332 -0.3332
 1437SOL     OW 5751   0.656   6.990  10.110  1.1017  0.4778 -0.2307
 1437SOL    HW1 5752   0.586   7.019  10.169 -0.4553 -1.5436 -1.0006
 1437SOL    HW2 5753   0.724   7.057  10.121 -0.4439  1.9144  1.4027
 1438SOL     OW 5754   3.886   1.575   6.624 -0.0744 -0.2199  0.0958
 1438SOL    HW1 5755   3.859   1.485   6.641 -0.4775 -0.0319  0.5241
 1438SOL    HW2 5756   3.910   1.609   6.711  0.4660 -0.0392 -0.1226
 1439SOL     OW 5757   7.396   4.463   2.184 -0.2542 -0.8293 -0.0132
 1439SOL    HW1 5758   7.378   4.495   2.096 -2.4722  0.8631  0.9543
 1439SOL    HW2 5759   7.373   4.370   2.181  2.0801 -1.4445 -1.7707
 1440SOL     OW 5760   4.378   4.085  10.515 -0.0000  0.4801 -0.4898
 1440SOL    HW1 5761   4.456   4.113  10.563 -0.8023  0.3408  0.9645
 1440SOL    HW2 5762   4.332   4.167  10.494 -0.4515  0.4737  0.4265
 1441SOL     OW 5763   1.844   2.194   0.003  0.3940 -0.0144  0.3112
 1441SOL    HW1 5764   1.849   2.101  -0.021  0.0740  0.0313  0.0600
 1441SOL    HW2 5765   1.753   2.207   0.030  0.2496  0.3935 -0.3513
 1442SOL     OW 5766   1.369   1.398  12.063  0.1805  0.3682 -0.1343
 1442SOL    HW1 5767   1.371   1.486  12.026 -1.6450  0.7966  0.6839
 1442SOL    HW2 5768   1.328   1.344  11.996 -2.4394  0.9984  0.8300
 1443SOL     OW 5769   4.664   2.740   3.501  0.1966  0.0280  0.0102
 1443SOL    HW1 5770   4.723   2.726   3.428  0.0389 -0.2791 -0.0592
 1443SOL    HW2 5771   4.601   2.668   3.496 -0.9832  1.0493 -0.7152
 1444SOL     OW 5772   3.102   0.091   0.536 -0.5999  0.2086 -0.8436
 1444SOL    HW1 5773   3.045   0.159   0.500 -1.5703 -1.2711 -2.2326
 1444SOL    HW2 5774   3.170   0.080   0.471 -1.8690 -1.8702 -1.9152
 1445SOL     OW 5775   2.072   3.929   6.352  0.1872 -0.2396  0.0932
 1445SOL    HW1 5776   2.012   3.893   6.417  1.1569 -0.3357  0.9683
 1445SOL    HW2 5777   2.110   3.852   6.309 -0.9550 -0.1686 -1.0855
 1446SOL     OW 5778   6.827   4.291  11.894  0.4674 -0.5705  0.1105
 1446SOL    HW1 5779   6.871   4.301  11.810  1.0924  0.8434  0.5762
 1446SOL    HW2 5780   6.746   4.342  11.886  0.5743 -0.3509  0.3954
 1447SOL     OW 5781   6.654   4.871   4.863 -0.0085 -0.4762  0.5843
 1447SOL    HW1 5782   6.714   4.898   4.932  0.6279 -0.2257 -0.0531
 1447SOL    HW2 5783   6.614   4.953   4.833  1.0709 -0.3421 -0.5699
 1448SOL     OW 5784   5.632   3.936  11.097  0.1130  0.1489  0.8860
 1448SOL    HW1 5785   5.560   3.913  11.155  0.4039 -0.8373  0.8779
 1448SOL    HW2 5786   5.711   3.914  11.147  0.5058  2.8228  1.5957
 1449SOL     OW 5787   6.355   6.389  11.420  0.3594  0.5593  0.1196
 1449SOL    HW1 5788   6.325   6.311  11.466  0.9447 -0.2618 -0.8503
 1449SOL    HW2 5789   6.274   6.428  11.384  0.2048 -0.5351 -0.7883
 1450SOL     OW 5790   0.362   4.607   0.236  0.3166 -1.3450 -0.2176
 1450SOL    HW1 5791   0.412   4.679   0.197  2.2053 -3.0603 -1.1580
 1450SOL    HW2 5792   0.316   4.567   0.162 -1.0628 -0.9039  0.3637
 1451SOL     OW 5793   7.891   1.297   1.792 -0.4195  0.3052 -0.1050
 1451SOL    HW1 5794   7.917   1.206   1.783  0.3566  0.2772  1.8366
 1451SOL    HW2 5795   7.811   1.305   1.740 -0.0315 -1.2510 -1.0002
 1452SOL     OW 5796   6.378   4.454   0.388  0.3370  0.6590 -0.3549
 1452SOL    HW1 5797   6.352   4.545   0.405  0.2855  0.9201 -1.7058
 1452SOL    HW2 5798   6.405   4.454   0.296 -0.4684 -0.8703 -0.6225
 1453SOL     OW 5799   0.252   0.699   1.924  0.4294  0.6757 -0.1616
 1453SOL    HW1 5800   0.341   0.706   1.960  0.7668  2.3338 -1.1972
 1453SOL    HW2 5801   0.264   0.677   1.832 -0.3096 -0.5046  0.0050
 1454SOL     OW 5802   1.568   7.884   3.393 -0.4409  0.2457 -0.1306
 1454SOL    HW1 5803   1.597   7.794   3.411 -1.3311  0.0403  0.3859
 1454SOL    HW2 5804   1.648   7.933   3.375  0.1500 -0.4262  0.6045
 1455SOL     OW 5805   0.945   6.074  11.739  0.3207 -0.1468  0.5635
 1455SOL    HW1 5806   0.890   6.131  11.793 -0.0611  1.2704 -1.2534
 1455SOL    HW2 5807   0.991   6.133  11.680  2.3947 -1.4822  0.7402
 1456SOL     OW 5808   7.261   0.263   5.232 -0.3138 -0.2053  0.0968
 1456SOL    HW1 5809   7.239   0.198   5.165  1.4058 -0.6671 -0.0861
 1456SOL    HW2 5810   7.263   0.346   5.185 -1.3297 -0.1914  0.0683
 1457SOL     OW 5811   6.798   4.422   0.223 -0.1444  0.0318 -0.2005
 1457SOL    HW1 5812   6.859   4.494   0.204  0.8015 -1.1149 -1.7733
 1457SOL    HW2 5813   6.817   4.357   0.156  0.3834 -2.5306  2.2670
 1458SOL     OW 5814   4.890   2.560   3.310  0.3569  0.5516 -0.5870
 1458SOL    HW1 5815   4.937   2.578   3.228 -0.5539  0.8022 -1.0613
 1458SOL    HW2 5816   4.798   2.572   3.288  0.0447 -0.2057  0.2670
 1459SOL     OW 5817   4.049   4.807  11.260 -0.1990  0.0379 -0.2226
 1459SOL    HW1 5818   4.050   4.804  11.356  0.0414 -1.2337 -0.2490
 1459SOL    HW2 5819   3.956   4.813  11.238 -0.3788 -1.2177  0.0852
 1460SOL     OW 5820   5.372   4.120   4.885 -0.1651 -0.0164 -0.3917
 1460SOL    HW1 5821   5.397   4.051   4.824  0.2660 -2.0520  1.9368
 1460SOL    HW2 5822   5.430   4.108   4.960 -0.5865  2.4614  0.4147
 1461SOL     OW 5823   6.680   6.761   4.938  0.1628 -0.3035 -0.1661
 1461SOL    HW1 5824   6.706   6.670   4.924 -1.5249 -0.5936 -1.8823
 1461SOL    HW2 5825   6.584   6.758   4.942  0.0929  1.3563  0.1658
 1462SOL     OW 5826   5.399   1.842   4.894 -0.2397  0.6139 -0.3478
 1462SOL    HW1 5827   5.322   1.895   4.876  0.1408  1.7436  1.1714
 1462SOL    HW2 5828   5.473   1.901   4.882  0.1964  0.4555  1.3463
 1463SOL     OW 5829   5.157   2.261  11.525  0.1522 -0.2323  0.3602
 1463SOL    HW1 5830   5.169   2.189  11.586 -0.1373 -0.0287  0.6648
 1463SOL    HW2 5831   5.159   2.340  11.581 -1.4365 -0.1114  0.3084
 1464SOL     OW 5832   7.476   6.313   8.286  0.0430 -0.0090 -0.1860
 1464SOL    HW1 5833   7.474   6.380   8.355  0.1787 -1.1033  0.9169
 1464SOL    HW2 5834   7.389   6.274   8.289  0.2420 -0.4602 -0.2288
 1465SOL     OW 5835   4.713   6.476  11.253 -0.1595 -0.1587  0.0078
 1465SOL    HW1 5836   4.663   6.531  11.314  0.2692 -0.9908  1.1572
 1465SOL    HW2 5837   4.756   6.538  11.195  0.0993  0.7280  1.1002
 1466SOL     OW 5838   3.077   4.141   9.897  0.0256  0.3613 -0.2604
 1466SOL    HW1 5839   3.027   4.092   9.832  0.7008 -1.1184  0.2754
 1466SOL    HW2 5840   3.152   4.176   9.848 -0.6422  1.1724 -0.7182
 1467SOL     OW 5841   2.636   4.128   8.943 -0.1887  0.0002  0.0114
 1467SOL    HW1 5842   2.683   4.202   8.983 -0.2652  1.4574 -2.3890
 1467SOL    HW2 5843   2.693   4.053   8.957 -0.6941  0.1025  3.6953
 1468SOL     OW 5844   7.271   6.203   3.165 -0.8845  0.5169 -0.5848
 1468SOL    HW1 5845   7.344   6.145   3.188 -0.2691  1.4482 -0.1059
 1468SOL    HW2 5846   7.205   6.186   3.231  0.1743  1.9088  0.9112
 1469SOL     OW 5847   2.925   2.711   4.653 -0.4356 -0.0243  0.5202
 1469SOL    HW1 5848   3.016   2.741   4.655 -0.2111 -0.6497  0.1260
 1469SOL    HW2 5849   2.888   2.751   4.574  0.2912 -1.9252 -0.8437
 1470SOL     OW 5850   2.582   5.187   1.506 -0.3131 -0.0286 -0.1556
 1470SOL    HW1 5851   2.654   5.250   1.518  2.0713 -2.7674  0.9651
 1470SOL    HW2 5852   2.537   5.186   1.591 -0.3323  0.1251 -0.1637
 1471SOL     OW 5853   0.470   1.747   3.712 -0.1640  0.1189 -0.0474
 1471SOL    HW1 5854   0.501   1.668   3.667 -1.9675 -0.4386 -0.3688
 1471SOL    HW2 5855   0.547   1.803   3.715  1.2027 -1.6726  0.2625
 1472SOL     OW 5856   1.896   0.839   4.910  0.4072  0.0219 -0.5293
 1472SOL    HW1 5857   1.940   0.915   4.948  0.5196 -0.8368  1.1177
 1472SOL    HW2 5858   1.836   0.809   4.978 -0.0710 -1.0126 -1.3793
 1473SOL     OW 5859   1.935   3.761   1.815 -0.2568 -0.3617 -0.2116
 1473SOL    HW1 5860   1.858   3.808   1.784 -0.3224  0.3858  1.0076
 1473SOL    HW2 5861   2.009   3.804   1.772 -0.4762 -0.7922 -1.0381
 1474SOL     OW 5862   3.572   5.223   6.898  0.0687  0.1007 -0.3089
 1474SOL    HW1 5863   3.650   5.168   6.908 -1.0435 -1.7417 -1.2679
 1474SOL    HW2 5864   3.586   5.270   6.815 -0.0995 -0.7009 -0.7998
 1475SOL     OW 5865   2.620   0.672   4.200  0.6209 -0.4913  0.5523
 1475SOL    HW1 5866   2.654   0.762   4.197  1.0524 -0.6646 -0.0465
 1475SOL    HW2 5867   2.696   0.619   4.227  0.8469 -0.8824 -0.7847
 1476SOL     OW 5868   2.461   5.890   3.110  0.2882 -0.0901  0.1843
 1476SOL    HW1 5869   2.406   5.949   3.058 -0.6979 -1.6447 -0.6089
 1476SOL    HW2 5870   2.456   5.925   3.199 -0.0267  1.1801 -0.3150
 1477SOL     OW 5871   1.813   4.405  10.571 -0.6519  0.1745 -0.1764
 1477SOL    HW1 5872   1.731   4.453  10.578  0.7414  2.9083 -1.3051
 1477SOL    HW2 5873   1.823   4.388  10.477 -1.9314 -4.1622  0.2185
 1478SOL     OW 5874   0.233   6.659   5.052  0.5421  0.2534 -0.1475
 1478SOL    HW1 5875   0.240   6.583   4.994  0.8287  0.5823 -0.5483
 1478SOL    HW2 5876   0.191   6.625   5.131  3.2208 -1.0086  0.8795
 1479SOL     OW 5877   1.697   4.787  11.863  0.1878 -0.2259  0.1536
 1479SOL    HW1 5878   1.696   4.831  11.948  0.3575  0.3624 -0.1432
 1479SOL    HW2 5879   1.615   4.738  11.860 -0.2617  0.5056  0.2679
 1480SOL     OW 5880   6.090   4.621   4.261  0.1143  0.7899  0.6648
 1480SOL    HW1 5881   6.093   4.526   4.245 -1.8550  0.4429  1.9043
 1480SOL    HW2 5882   6.123   4.660   4.181 -1.6456 -0.9219 -1.0165
 1481SOL     OW 5883   7.690   1.468   6.292 -0.0654 -0.2478 -0.3139
 1481SOL    HW1 5884   7.696   1.377   6.323  2.5478 -0.0234  0.1081
 1481SOL    HW2 5885   7.650   1.515   6.364  1.7230 -0.5341  0.9396
 1482SOL     OW 5886   6.000   1.945   4.544  0.0803 -0.4079 -0.9584
 1482SOL    HW1 5887   5.989   1.952   4.639 -0.0061 -1.3854 -0.8852
 1482SOL    HW2 5888   5.967   1.857   4.522  1.1309 -0.6267 -1.7387
 1483SOL     OW 5889   3.220   7.074   2.390  0.1486 -0.1332  0.4376
 1483SOL    HW1 5890   3.141   7.047   2.436 -0.0814  1.1216  0.8165
 1483SOL    HW2 5891   3.193   7.148   2.337  0.3565 -1.6408 -1.9391
 1484SOL     OW 5892   1.811   0.227  10.236 -0.2396 -0.0389 -0.7089
 1484SOL    HW1 5893   1.879   0.240  10.170 -2.1678  0.2510 -2.7494
 1484SOL    HW2 5894   1.834   0.288  10.306  1.5898  0.0165 -1.3094
 1485SOL     OW 5895   6.956   6.549   7.238  0.0031 -0.3527  0.2084
 1485SOL    HW1 5896   6.987   6.559   7.328 -1.1355 -1.3352  0.7502
 1485SOL    HW2 5897   6.953   6.638   7.204  2.9219 -0.1739  0.2340
 1486SOL     OW 5898   0.223   5.009  12.325 -0.0581  0.4629  0.1624
 1486SOL    HW1 5899   0.309   5.048  12.305  1.5921 -3.6065 -1.6494
 1486SOL    HW2 5900   0.240   4.949  12.397 -1.0161 -1.2695 -0.9766
 1487SOL     OW 5901   1.976   2.196   6.005  0.0943  0.0313 -0.6951
 1487SOL    HW1 5902   1.917   2.121   6.001  1.5651 -1.1357 -1.3248
 1487SOL    HW2 5903   1.930   2.265   5.957 -0.4267 -1.0790 -1.8296
 1488SOL     OW 5904   7.177   7.186   4.080  0.0314  0.0609 -0.4660
 1488SOL    HW1 5905   7.148   7.252   4.143 -0.5168  0.3516 -1.0122
 1488SOL    HW2 5906   7.196   7.236   4.001  0.5863 -0.3179 -0.5787
 1489SOL     OW 5907   6.485   3.858   1.628  0.0088  0.1094  0.5171
 1489SOL    HW1 5908   6.393   3.844   1.605 -0.6674 -1.3297  3.5506
 1489SOL    HW2 5909   6.485   3.939   1.679  0.3899  0.0079  0.6832
 1490SOL     OW 5910   3.730   2.275   8.409 -0.0218  0.1665 -0.2599
 1490SOL    HW1 5911   3.729   2.294   8.503 -1.4085  0.9209 -0.3972
 1490SOL    HW2 5912   3.671   2.340   8.371 -0.0574 -0.5920 -1.5654
 1491SOL     OW 5913   2.109   4.985   3.931 -0.6213 -0.2251 -0.3535
 1491SOL    HW1 5914   2.063   5.067   3.946  0.3897  0.1572  0.8878
 1491SOL    HW2 5915   2.064   4.922   3.987 -0.2732 -0.0728  0.1113
 1492SOL     OW 5916   0.004   2.260   4.828 -0.2135 -0.2298 -0.4085
 1492SOL    HW1 5917  -0.082   2.285   4.861  0.3413  1.1515  0.0674
 1492SOL    HW2 5918  -0.006   2.169   4.801 -1.3996 -0.5700  1.0735
 1493SOL     OW 5919   5.047   7.781   9.674  0.0683  0.0583  0.1802
 1493SOL    HW1 5920   5.081   7.725   9.605 -0.9678 -2.0385  1.2457
 1493SOL    HW2 5921   5.117   7.783   9.740 -0.3839 -1.1833  0.7370
 1494SOL     OW 5922   0.890   1.714   9.414  0.3421  0.2500  0.9512
 1494SOL    HW1 5923   0.896   1.673   9.501 -1.3453  1.4549  1.6800
 1494SOL    HW2 5924   0.798   1.704   9.390  0.7854 -0.0148 -0.6980
 1495SOL     OW 5925   6.267   3.910   7.790  0.0210  0.0648  0.3627
 1495SOL    HW1 5926   6.175   3.926   7.773  0.4139  2.3857  0.0552
 1495SOL    HW2 5927   6.312   3.949   7.714  1.3327  1.0364  1.5915
 1496SOL     OW 5928   3.750   7.089  12.146 -0.4308 -0.1269  0.8439
 1496SOL    HW1 5929   3.701   7.161  12.185 -0.8466  0.1771 -0.1808
 1496SOL    HW2 5930   3.716   7.084  12.056  0.0419 -1.1859  0.7079
 1497SOL     OW 5931   1.713   1.715   9.307 -0.0523  0.4279  0.3036
 1497SOL    HW1 5932   1.656   1.640   9.323 -0.9748  1.1131  0.3221
 1497SOL    HW2 5933   1.776   1.683   9.242 -0.2923 -0.4255  0.4709
 1498SOL     OW 5934   6.341   4.012   4.637  0.3548  0.1959 -0.4695
 1498SOL    HW1 5935   6.307   3.923   4.621 -0.4255  0.7063 -1.8278
 1498SOL    HW2 5936   6.431   3.998   4.666  0.4151 -1.0274 -1.1591
 1499SOL     OW 5937   6.471   1.163   2.857 -0.0661  0.4483 -0.1510
 1499SOL    HW1 5938   6.565   1.177   2.868  0.5348 -3.0025  0.2370
 1499SOL    HW2 5939   6.434   1.183   2.944  0.8419 -1.2665  0.6829
 1500SOL     OW 5940   7.211   7.921   9.205 -0.5812  0.3058  0.4382
 1500SOL    HW1 5941   7.207   7.928   9.301 -0.6978 -0.5953  0.5017
 1500SOL    HW2 5942   7.176   7.834   9.185  1.3599 -0.3567 -0.2784
 1501SOL     OW 5943   1.122   5.733  10.553 -0.7114  0.2508  1.1322
 1501SOL    HW1 5944   1.026   5.734  10.550 -0.7582 -0.2514  2.0022
 1501SOL    HW2 5945   1.150   5.763  10.467 -1.6538 -0.6537  0.4916
 1502SOL     OW 5946   6.394   0.103   7.031  0.0993  0.1228 -0.3439
 1502SOL    HW1 5947   6.316   0.100   7.086 -0.3321  0.2535 -0.9398
 1502SOL    HW2 5948   6.460   0.052   7.080 -0.9139 -1.5927 -0.6788
 1503SOL     OW 5949   3.604   0.633   8.664 -0.0339 -0.5750  0.3038
 1503SOL    HW1 5950   3.693   0.652   8.636 -0.5311 -0.0357 -1.0293
 1503SOL    HW2 5951   3.564   0.588   8.589 -1.3314  0.6043  0.2384
 1504SOL     OW 5952   5.839   1.577   5.335 -0.1696 -0.1699 -0.3726
 1504SOL    HW1 5953   5.905   1.623   5.282 -1.4080  0.7807 -1.1662
 1504SOL    HW2 5954   5.804   1.645   5.393  1.0404 -1.1613  1.6075
 1505SOL     OW 5955   2.710   3.288   2.620  0.0915  0.4991  0.0899
 1505SOL    HW1 5956   2.625   3.259   2.652 -0.1191  0.5168 -0.4574
 1505SOL    HW2 5957   2.741   3.216   2.565  0.1081  0.7987 -0.2939
 1506SOL     OW 5958   0.196   1.462   6.294 -0.8341 -0.3407 -0.4454
 1506SOL    HW1 5959   0.205   1.376   6.254  1.9368  0.0626 -0.8806
 1506SOL    HW2 5960   0.230   1.523   6.229  1.9528  0.5237  1.6011
 1507SOL     OW 5961   4.811   2.061   9.472  0.3614  0.0810  0.1732
 1507SOL    HW1 5962   4.816   1.996   9.402 -0.2830  0.2198 -0.0087
 1507SOL    HW2 5963   4.761   2.133   9.434  1.7346  1.0415  0.1029
 1508SOL     OW 5964   3.315   0.712   7.216 -0.3817 -0.2821 -0.0997
 1508SOL    HW1 5965   3.394   0.766   7.222 -0.0965 -0.7871  0.8238
 1508SOL    HW2 5966   3.255   0.750   7.280 -0.4013 -0.7035  0.1294
 1509SOL     OW 5967   5.991   7.276   1.163 -0.1072 -0.5106  0.4925
 1509SOL    HW1 5968   5.956   7.231   1.087 -0.9356 -0.0042  0.5537
 1509SOL    HW2 5969   6.083   7.249   1.168  0.1271 -0.0682 -1.0384
 1510SOL     OW 5970   3.885   6.578   4.578  0.1091 -0.3219 -0.5776
 1510SOL    HW1 5971   3.935   6.496   4.575  0.8226  0.1367 -2.3464
 1510SOL    HW2 5972   3.868   6.592   4.671  1.2902 -1.6924 -0.1212
 1511SOL     OW 5973   3.528   0.759   1.766 -0.2496  0.0016  0.3509
 1511SOL    HW1 5974   3.602   0.820   1.766 -0.1606 -0.1042 -0.0458
 1511SOL    HW2 5975   3.568   0.673   1.773 -0.2510 -0.1369 -0.9974
 1512SOL     OW 5976   1.681   6.879   7.586 -0.8330 -0.3080  0.5384
 1512SOL    HW1 5977   1.726   6.816   7.641 -0.5091  0.9367  1.7655
 1512SOL    HW2 5978   1.588   6.863   7.602 -0.7497  0.4962  2.0649
 1513SOL     OW 5979   2.686   2.926  11.192 -0.0845  0.1539  0.1751
 1513SOL    HW1 5980   2.617   2.869  11.226  1.8929 -1.3779  1.9445
 1513SOL    HW2 5981   2.749   2.933  11.264  1.1150  2.3713 -0.9669
 1514SOL     OW 5982   7.387   2.087   7.842 -0.3144 -0.0695  0.0127
 1514SOL    HW1 5983   7.482   2.102   7.839 -0.2259 -0.6620 -1.6070
 1514SOL    HW2 5984   7.354   2.131   7.764 -1.5441  1.0354  1.1314
 1515SOL     OW 5985   5.007   5.336   6.518 -0.1085 -0.3135 -0.3684
 1515SOL    HW1 5986   5.011   5.317   6.611 -0.6841 -0.0496 -0.2874
 1515SOL    HW2 5987   5.013   5.250   6.475 -1.0294 -0.5407 -0.0543
 1516SOL     OW 5988   5.995   6.993   2.308  0.2695 -0.2463  0.1211
 1516SOL    HW1 5989   6.080   7.037   2.303 -0.0404  0.4409  0.6744
 1516SOL    HW2 5990   6.016   6.900   2.311  0.9530 -0.1394 -0.8544
 1517SOL     OW 5991   4.139   1.982  11.681  0.3059 -0.0450 -0.1035
 1517SOL    HW1 5992   4.058   1.931  11.690  0.4400  0.1016  3.4099
 1517SOL    HW2 5993   4.114   2.058  11.629 -1.5540 -0.5372 -0.0109
 1518SOL     OW 5994   5.608   5.637   5.301 -0.0213 -0.4088 -0.1207
 1518SOL    HW1 5995   5.617   5.733   5.298 -0.3323 -0.3768  0.0325
 1518SOL    HW2 5996   5.536   5.618   5.241 -0.7460 -0.4496  0.7500
 1519SOL     OW 5997   6.068   4.614   9.163  0.0968 -0.4966  0.2021
 1519SOL    HW1 5998   6.048   4.648   9.250  0.4390 -0.0761  0.1205
 1519SOL    HW2 5999   5.989   4.630   9.112 -0.1334 -0.8151  0.4515
 1520SOL     OW 6000   2.049   0.859   3.546  0.0528 -0.0388  0.4010
 1520SOL    HW1 6001   2.142   0.877   3.560 -0.1600  1.0804  0.4347
 1520SOL    HW2 6002   2.037   0.866   3.452 -0.1774  0.7808  0.4833
 1521SOL     OW 6003   2.658   3.576   2.825 -0.1212  0.6099 -0.1958
 1521SOL    HW1 6004   2.567   3.550   2.817 -0.4203  1.2525  0.8455
 1521SOL    HW2 6005   2.708   3.504   2.786 -1.0874  0.6240 -1.5245
 1522SOL     OW 6006   7.052   2.969   7.944 -0.7764  0.0462  0.4287
 1522SOL    HW1 6007   7.057   2.914   8.022  1.8950  0.1479  0.4311
 1522SOL    HW2 6008   7.026   2.910   7.874  1.0335 -1.0651  0.6295
 1523SOL     OW 6009   0.334   6.439   0.098  0.3688  0.0253  0.2854
 1523SOL    HW1 6010   0.242   6.454   0.121  0.4142  2.3536 -0.7750
 1523SOL    HW2 6011   0.355   6.355   0.138 -2.3787 -0.8679  0.0663
 1524SOL     OW 6012   5.653   0.101   0.041 -0.0403 -0.5679 -0.2780
 1524SOL    HW1 6013   5.600   0.033   0.083 -0.7146  0.6056  0.8329
 1524SOL    HW2 6014   5.647   0.081  -0.052 -1.2729 -1.3005 -0.0674
 1525SOL     OW 6015   6.918   0.411   1.474  0.1577  0.1621  0.1318
 1525SOL    HW1 6016   6.939   0.450   1.389  0.2037 -0.3185 -0.0819
 1525SOL    HW2 6017   7.003   0.389   1.512  0.1578  0.8096  0.5124
 1526SOL     OW 6018   4.472   0.910   4.761  0.1241  0.6052 -0.5256
 1526SOL    HW1 6019   4.546   0.943   4.812 -0.6240  2.2160 -0.4168
 1526SOL    HW2 6020   4.396   0.922   4.818 -0.6836  2.1566 -1.8452
 1527SOL     OW 6021   3.845   1.051   0.823 -0.7675 -0.3652 -0.1104
 1527SOL    HW1 6022   3.811   0.976   0.774 -0.1886  0.1393 -1.3346
 1527SOL    HW2 6023   3.876   1.112   0.755 -1.0164  0.8823  0.8572
 1528SOL     OW 6024   5.319   6.035   6.013 -0.2802  0.4440  0.1779
 1528SOL    HW1 6025   5.230   6.022   6.045 -0.4756  2.0482  0.3783
 1528SOL    HW2 6026   5.321   6.127   5.984  2.2200  1.5738  3.3563
 1529SOL     OW 6027   6.968   5.932   8.772  0.5144 -0.1710 -0.2719
 1529SOL    HW1 6028   6.960   5.947   8.867  1.4755 -0.9711 -0.0522
 1529SOL    HW2 6029   7.043   5.985   8.746  0.1929  0.1209 -0.6099
 1530SOL     OW 6030   0.771   7.706  10.582 -0.8345 -0.4083 -0.0757
 1530SOL    HW1 6031   0.749   7.797  10.603 -1.5521 -0.5312 -0.2603
 1530SOL    HW2 6032   0.866   7.705  10.578 -0.8010  0.2409  0.3491
 1531SOL     OW 6033   6.557   5.539   5.356  0.2032  0.1543 -0.2050
 1531SOL    HW1 6034   6.647   5.566   5.334  0.7166 -0.9873  0.4014
 1531SOL    HW2 6035   6.564   5.445   5.373 -0.8823  0.2810  1.0745
 1532SOL     OW 6036   1.662   7.062   3.515 -0.2194 -0.0180 -0.2364
 1532SOL    HW1 6037   1.703   6.996   3.570 -0.6019 -3.1105 -3.3049
 1532SOL    HW2 6038   1.735   7.119   3.488  0.6555 -0.8504  0.3132
 1533SOL     OW 6039   3.745   1.635   7.021 -0.2234 -0.2654  0.5229
 1533SOL    HW1 6040   3.675   1.587   6.977 -0.9307 -0.4410  1.8000
 1533SOL    HW2 6041   3.700   1.703   7.072  0.7334  1.7025 -1.0932
 1534SOL     OW 6042   3.014   6.697   9.981 -0.9812  0.0328  0.2207
 1534SOL    HW1 6043   3.052   6.783   9.963  1.0827 -0.4378  1.9081
 1534SOL    HW2 6044   2.944   6.715  10.043 -1.8162  0.6470 -0.8577
 1535SOL     OW 6045   6.911   2.584   5.050  0.0399  0.1300 -0.0347
 1535SOL    HW1 6046   6.927   2.551   4.962  2.4888 -1.1837  0.8116
 1535SOL    HW2 6047   6.998   2.611   5.082 -0.7938  0.7213  1.9146
 1536SOL     OW 6048   1.719   0.699   9.200  0.8018  0.4183 -0.1614
 1536SOL    HW1 6049   1.706   0.617   9.248  1.4284  0.8512  0.7880
 1536SOL    HW2 6050   1.794   0.740   9.243  0.4239  1.5475 -0.5419
 1537SOL     OW 6051   2.839   1.079   8.480 -0.6682  0.0037  0.0970
 1537SOL    HW1 6052   2.883   1.001   8.515  1.1567 -0.1147 -2.2447
 1537SOL    HW2 6053   2.822   1.059   8.388  0.8070  2.6723 -0.8751
 1538SOL     OW 6054   1.788   5.360   1.756 -0.3020 -0.1356 -0.0600
 1538SOL    HW1 6055   1.857   5.302   1.723 -0.3543  0.4485 -1.2488
 1538SOL    HW2 6056   1.809   5.372   1.848  0.1710 -1.3891  0.0210
 1539SOL     OW 6057   6.722   7.501   1.703  0.2407  0.3105 -0.4193
 1539SOL    HW1 6058   6.701   7.585   1.662 -1.0842 -0.1559 -0.7501
 1539SOL    HW2 6059   6.640   7.451   1.699  0.8836 -0.8365  0.1686
 1540SOL     OW 6060   6.871   2.764   7.002 -0.3615  0.5225 -0.1307
 1540SOL    HW1 6061   6.777   2.744   7.006 -0.4722  1.2093  2.8059
 1540SOL    HW2 6062   6.911   2.708   7.068  0.7436  2.6040  1.0884
 1541SOL     OW 6063   0.988   4.301   0.399 -0.0403  0.0506 -0.3425
 1541SOL    HW1 6064   0.969   4.382   0.352  1.1606 -0.5124 -1.9235
 1541SOL    HW2 6065   0.903   4.259   0.411 -0.6694  1.5080  0.4758
 1542SOL     OW 6066   2.019   7.856   5.143 -0.0751  0.0752 -0.0737
 1542SOL    HW1 6067   1.960   7.817   5.208 -1.1642 -0.4649 -1.3346
 1542SOL    HW2 6068   2.104   7.861   5.187 -1.3183  2.3239  2.3730
 1543SOL     OW 6069   7.255   3.573   0.814 -0.3004 -0.0326  0.0755
 1543SOL    HW1 6070   7.285   3.486   0.786 -0.7092 -0.1343 -0.0598
 1543SOL    HW2 6071   7.296   3.586   0.900  1.3603  0.4890 -0.7596
 1544SOL     OW 6072   0.399   3.182  11.679 -0.1074 -0.5552 -0.3795
 1544SOL    HW1 6073   0.451   3.245  11.628  0.5070 -0.0106  0.8841
 1544SOL    HW2 6074   0.384   3.109  11.619  0.1699  0.2808 -1.4952
 1545SOL     OW 6075   5.818   0.656   1.921 -0.1483  0.4296  0.1487
 1545SOL    HW1 6076   5.816   0.579   1.979 -0.5759 -0.4058 -0.9374
 1545SOL    HW2 6077   5.907   0.691   1.931  0.9666 -1.7584 -1.2526
 1546SOL     OW 6078   5.544   3.280   2.654 -0.0329 -0.2650  0.0953
 1546SOL    HW1 6079   5.490   3.358   2.662 -1.4639 -1.2741  0.5311
 1546SOL    HW2 6080   5.634   3.314   2.653 -0.6419  1.4562 -0.8901
 1547SOL     OW 6081   2.072   3.341   5.976  0.3487  0.1916  0.6218
 1547SOL    HW1 6082   2.153   3.341   6.028  0.2755 -1.7678  0.8135
 1547SOL    HW2 6083   2.088   3.276   5.908  0.9110  3.5331 -2.7276
 1548SOL     OW 6084   0.941   2.451   1.352  0.1891  0.0746 -0.0932
 1548SOL    HW1 6085   0.882   2.459   1.277  0.8191 -0.2042 -0.6143
 1548SOL    HW2 6086   0.995   2.375   1.333 -0.6002 -0.8866  1.3133
 1549SOL     OW 6087   4.682   2.609  11.886  0.2583  0.0950 -0.2072
 1549SOL    HW1 6088   4.593   2.624  11.919  0.1020 -0.4891 -0.3448
 1549SOL    HW2 6089   4.739   2.655  11.948 -0.0907 -0.2137  0.3486
 1550SOL     OW 6090   5.613   7.871   6.005  0.2705 -0.2259  0.6609
 1550SOL    HW1 6091   5.695   7.856   5.958 -0.8417 -0.9198 -1.1130
 1550SOL    HW2 6092   5.625   7.956   6.047  1.1873  0.5775 -1.1487
 1551SOL     OW 6093   6.165   2.735  11.519  0.7610  0.8715  0.7634
 1551SOL    HW1 6094   6.231   2.800  11.545  0.3387  1.4251  0.4765
 1551SOL    HW2 6095   6.124   2.708  11.601  2.4097 -0.6699  1.1278
 1552SOL     OW 6096   4.072   0.949   8.867 -0.0055 -0.4471 -0.0521
 1552SOL    HW1 6097   4.009   1.007   8.824 -0.9011 -1.1590  0.2720
 1552SOL    HW2 6098   4.157   0.975   8.831 -0.2829  1.5346  0.6206
 1553SOL     OW 6099   3.038   7.792   2.031  0.4374  0.0575  0.3332
 1553SOL    HW1 6100   3.108   7.733   2.060 -0.1695  0.3158  2.5132
 1553SOL    HW2 6101   2.959   7.756   2.070 -0.0315  2.0031  1.2827
 1554SOL     OW 6102   2.754   2.673  10.681 -0.2745 -0.3682  1.0186
 1554SOL    HW1 6103   2.752   2.708  10.770 -0.2276  0.5057  0.6865
 1554SOL    HW2 6104   2.774   2.749  10.626 -2.1925 -0.5150  0.0581
 1555SOL     OW 6105   5.476   3.940   5.778 -0.4754  0.5596  0.6573
 1555SOL    HW1 6106   5.499   3.849   5.798 -0.5970  0.2172 -0.6804
 1555SOL    HW2 6107   5.386   3.949   5.812 -1.8009 -0.8849 -2.1269
 1556SOL     OW 6108   2.158   6.650  11.767  0.2018  0.3852  0.4102
 1556SOL    HW1 6109   2.076   6.688  11.735  0.1815 -1.3615 -1.8546
 1556SOL    HW2 6110   2.146   6.556  11.757  3.1714  0.1080 -2.0072
 1557SOL     OW 6111   4.208   7.448  10.599  0.6389 -0.8084 -0.0543
 1557SOL    HW1 6112   4.118   7.419  10.617 -0.0975  0.9760 -0.6419
 1557SOL    HW2 6113   4.249   7.455  10.686 -0.8142  1.3589  0.5560
 1558SOL     OW 6114   1.656   2.420   1.973 -0.2799 -0.4581  0.3210
 1558SOL    HW1 6115   1.588   2.486   1.983 -1.6214 -1.7739  0.2340
 1558SOL    HW2 6116   1.696   2.414   2.060 -1.2278 -0.6505  0.7567
 1559SOL     OW 6117   4.389   5.070   2.969  0.7036  0.0495 -0.2685
 1559SOL    HW1 6118   4.376   4.975   2.965 -2.2277  0.4061 -1.5070
 1559SOL    HW2 6119   4.430   5.092   2.885  0.0088  0.0533 -0.6052
 1560SOL     OW 6120   6.654   5.594   3.960  0.2418 -0.0291  0.2250
 1560SOL    HW1 6121   6.625   5.505   3.981  0.8134 -0.2121  0.2691
 1560SOL    HW2 6122   6.578   5.649   3.976  0.1289 -0.4003  1.0215
 1561SOL     OW 6123   7.214   5.675   8.757 -0.1380  0.5269  0.0421
 1561SOL    HW1 6124   7.237   5.647   8.668  0.0347  0.3660  0.1375
 1561SOL    HW2 6125   7.132   5.628   8.776  0.2843 -0.1131  0.2964
 1562SOL     OW 6126   3.314   0.812   1.437  0.4792 -0.2116 -0.5162
 1562SOL    HW1 6127   3.253   0.756   1.387  0.6124 -1.2462  0.4324
 1562SOL    HW2 6128   3.399   0.796   1.397  0.5382 -0.8098 -0.1656
 1563SOL     OW 6129   5.893   2.418   3.255 -0.6594  0.2074 -0.0656
 1563SOL    HW1 6130   5.944   2.356   3.306 -1.4218  0.1869  0.6968
 1563SOL    HW2 6131   5.889   2.496   3.311 -3.4053 -0.5779  0.9681
 1564SOL     OW 6132   1.228   7.501   9.267 -0.0148 -0.2252  0.0198
 1564SOL    HW1 6133   1.148   7.452   9.248  0.0274  0.7043 -3.3159
 1564SOL    HW2 6134   1.198   7.578   9.316 -1.0007 -0.5036 -0.1238
 1565SOL     OW 6135   2.418   4.601   8.495 -0.3030  0.0758  0.6293
 1565SOL    HW1 6136   2.486   4.615   8.429 -0.5905 -1.1509  0.0443
 1565SOL    HW2 6137   2.433   4.670   8.560  1.6652 -0.3159  0.6458
 1566SOL     OW 6138   7.056   2.461   9.399  0.3814 -0.2712 -0.3821
 1566SOL    HW1 6139   7.093   2.545   9.373 -0.8872  0.4990  0.1882
 1566SOL    HW2 6140   7.055   2.409   9.319  2.4985 -0.2769 -0.4428
 1567SOL     OW 6141   4.211   6.753   7.610 -0.8292 -0.3460 -0.0471
 1567SOL    HW1 6142   4.265   6.676   7.628  0.0748  0.4282  0.6823
 1567SOL    HW2 6143   4.149   6.724   7.544 -0.3063 -1.6127 -0.0090
 1568SOL     OW 6144   4.794   0.159   7.612 -0.0349 -0.1974 -0.4763
 1568SOL    HW1 6145   4.701   0.178   7.618 -0.2047 -0.7903 -1.0284
 1568SOL    HW2 6146   4.836   0.245   7.612 -0.6525  0.1227 -1.2152
 1569SOL     OW 6147   3.732   7.073   9.589 -0.1900 -0.4090 -0.1296
 1569SOL    HW1 6148   3.745   6.997   9.645 -1.2455 -0.7475 -0.3195
 1569SOL    HW2 6149   3.768   7.147   9.638  1.6327 -1.1273 -0.2949
 1570SOL     OW 6150   0.557   0.791   0.354 -0.0066  0.0748 -0.2745
 1570SOL    HW1 6151   0.590   0.789   0.264 -1.2946 -2.9234 -0.8103
 1570SOL    HW2 6152   0.608   0.724   0.400 -1.7836 -1.0699  0.1753
 1571SOL     OW 6153   4.635   2.709   9.557 -0.3410 -0.2217 -0.2429
 1571SOL    HW1 6154   4.572   2.714   9.485 -1.7175  0.8984  0.9876
 1571SOL    HW2 6155   4.582   2.693   9.635  1.0356 -0.5385  0.6651
 1572SOL     OW 6156   1.865   6.032   5.008 -0.0176  0.6097  0.1086
 1572SOL    HW1 6157   1.821   5.947   5.003 -1.4213  1.3647 -1.3202
 1572SOL    HW2 6158   1.958   6.010   5.009 -0.3637 -0.9962  2.1232
 1573SOL     OW 6159   6.156   2.591  10.998 -0.1215  0.2620  0.9027
 1573SOL    HW1 6160   6.193   2.676  11.021  0.8781  0.2518 -0.5442
 1573SOL    HW2 6161   6.223   2.550  10.944 -2.4069  0.4790 -2.3410
 1574SOL     OW 6162   1.754   2.352   2.866 -0.0574  0.0587 -0.0426
 1574SOL    HW1 6163   1.844   2.328   2.847  0.1602  0.0266  0.9644
 1574SOL    HW2 6164   1.754   2.373   2.960 -0.9138  0.8849 -0.2101
 1575SOL     OW 6165   7.266   3.431  11.548 -0.4196  0.5627  0.2361
 1575SOL    HW1 6166   7.268   3.336  11.557 -1.0982 -0.0637 -4.0527
 1575SOL    HW2 6167   7.174   3.455  11.561 -0.1262  0.8366  2.0921
 1576SOL     OW 6168   2.752   7.430   8.005  0.2169 -0.5005  0.0072
 1576SOL    HW1 6169   2.711   7.412   8.089 -0.5194  0.9105 -0.0164
 1576SOL    HW2 6170   2.679   7.438   7.943  0.5687  0.7058 -0.2955
 1577SOL     OW 6171   2.714   2.461   6.177 -0.0213  0.4441  0.3393
 1577SOL    HW1 6172   2.619   2.459   6.167 -0.0718  0.0224  0.8636
 1577SOL    HW2 6173   2.731   2.533   6.237 -0.1346 -0.3900  1.4108
 1578SOL     OW 6174   1.010   0.992   4.102 -0.0739 -0.3292  0.0530
 1578SOL    HW1 6175   1.089   0.972   4.053 -0.2816  0.2065 -0.5111
 1578SOL    HW2 6176   1.014   1.086   4.118 -1.2650 -0.0275 -1.2144
 1579SOL     OW 6177   0.587   6.728   3.865  0.6423  0.4828 -0.0588
 1579SOL    HW1 6178   0.596   6.808   3.917 -1.8538  0.3387  0.7011
 1579SOL    HW2 6179   0.602   6.657   3.927  0.5512  0.3202 -0.2214
 1580SOL     OW 6180   0.206   2.556   1.066 -0.1378  0.5503  0.8447
 1580SOL    HW1 6181   0.147   2.482   1.078  0.2311  0.2271  0.6968
 1580SOL    HW2 6182   0.189   2.613   1.141 -0.1723  0.1418  1.1504
 1581SOL     OW 6183   2.320   1.087   7.752  0.3404  0.3163  0.3379
 1581SOL    HW1 6184   2.259   1.053   7.818 -0.5030 -1.1892 -1.1215
 1581SOL    HW2 6185   2.383   1.016   7.739 -0.7951 -0.3814 -1.9768
 1582SOL     OW 6186   4.568   1.623  10.888  0.0306 -0.1054 -0.0298
 1582SOL    HW1 6187   4.632   1.694  10.898 -0.9847  1.0445 -1.3748
 1582SOL    HW2 6188   4.530   1.636  10.802 -1.3542 -1.3346  0.3457
 1583SOL     OW 6189   3.414   2.150  12.099  0.3044 -0.0497 -0.6391
 1583SOL    HW1 6190   3.336   2.184  12.143 -0.3085 -0.2412 -1.5594
 1583SOL    HW2 6191   3.387   2.067  12.061  1.6028 -1.2764  0.9934
 1584SOL     OW 6192   6.022   3.036   2.381  0.3153 -0.2278 -0.3674
 1584SOL    HW1 6193   6.060   2.968   2.436 -2.0922  0.5485  2.5142
 1584SOL    HW2 6194   5.931   3.007   2.366 -0.3027  1.5707 -0.3781
 1585SOL     OW 6195   1.564   1.021   8.471 -0.2909 -0.1967 -0.3229
 1585SOL    HW1 6196   1.573   1.050   8.381  0.4560 -0.6954 -0.4186
 1585SOL    HW2 6197   1.531   1.098   8.518 -0.2356  0.2054 -0.9297
 1586SOL     OW 6198   2.922   5.971   8.592  0.6842  0.0109 -0.1714
 1586SOL    HW1 6199   2.858   5.907   8.623  0.6364  0.5815  0.9567
 1586SOL    HW2 6200   2.869   6.047   8.568  0.9440  0.6353  1.1480
 1587SOL     OW 6201   6.696   1.921   5.249 -0.3551  0.3006 -0.1195
 1587SOL    HW1 6202   6.688   1.826   5.261 -0.2568  0.1721 -0.9986
 1587SOL    HW2 6203   6.761   1.948   5.314 -0.6719 -0.1693  0.4026
 1588SOL     OW 6204   2.489   1.553   4.055 -0.2887 -0.5447 -0.6699
 1588SOL    HW1 6205   2.463   1.465   4.082 -0.8619 -0.2817 -0.3482
 1588SOL    HW2 6206   2.487   1.605   4.135 -0.9857 -0.0009 -1.0295
 1589SOL     OW 6207   1.643   2.324   5.025  0.3838 -0.1818 -0.3852
 1589SOL    HW1 6208   1.710   2.264   4.993  0.9693  1.0864 -1.6451
 1589SOL    HW2 6209   1.687   2.376   5.093 -0.0407 -0.9440  0.5001
 1590SOL     OW 6210   3.987   0.857   2.009 -0.1750 -0.4184  0.3866
 1590SOL    HW1 6211   4.006   0.783   2.068  1.0136  0.9956  1.8659
 1590SOL    HW2 6212   4.039   0.838   1.930  0.7825 -0.7830  1.0788
 1591SOL     OW 6213   7.894   1.480   2.466 -0.6020  0.8662  0.1816
 1591SOL    HW1 6214   7.835   1.451   2.536 -1.9811  2.4387 -0.2470
 1591SOL    HW2 6215   7.957   1.537   2.510 -0.2467  0.2924  0.4262
 1592SOL     OW 6216   7.447   6.612   0.604  0.6471  0.4132  0.1204
 1592SOL    HW1 6217   7.416   6.614   0.514  1.1104 -0.1365 -0.0586
 1592SOL    HW2 6218   7.428   6.523   0.635  1.2969  0.3198  0.2682
 1593SOL     OW 6219   4.832   1.896  10.285 -0.2711 -0.5366 -0.5865
 1593SOL    HW1 6220   4.883   1.872  10.207  0.9199 -0.3216  0.0998
 1593SOL    HW2 6221   4.882   1.860  10.358  0.9141  2.7862  0.4036
 1594SOL     OW 6222   5.859   2.200  10.335 -0.2790 -0.3628  0.4070
 1594SOL    HW1 6223   5.892   2.229  10.249  0.0204  0.2852  0.7340
 1594SOL    HW2 6224   5.917   2.242  10.398 -1.7120  0.8088  0.9987
 1595SOL     OW 6225   2.658   4.092   5.978  0.5175  0.5484 -0.4457
 1595SOL    HW1 6226   2.679   4.181   5.950  0.8997 -0.1869 -2.7290
 1595SOL    HW2 6227   2.661   4.095   6.074  1.2069  2.8104 -0.4870
 1596SOL     OW 6228   6.489   5.621  12.115  0.5657 -0.2939  0.0226
 1596SOL    HW1 6229   6.422   5.634  12.181  1.4109  0.9838  0.6768
 1596SOL    HW2 6230   6.444   5.633  12.031  0.1788  1.7469  0.4793
 1597SOL     OW 6231   2.462   2.446   4.106  0.0355  0.2582 -0.4782
 1597SOL    HW1 6232   2.554   2.464   4.085  0.4558 -0.1133  0.9519
 1597SOL    HW2 6233   2.419   2.531   4.101  0.6863  0.6181 -0.0946
 1598SOL     OW 6234   5.469   1.726   5.804 -0.1599 -0.2759 -0.0273
 1598SOL    HW1 6235   5.375   1.730   5.784 -0.1604 -2.4413 -0.7090
 1598SOL    HW2 6236   5.490   1.814   5.834 -1.9193  0.9179 -1.9855
 1599SOL     OW 6237   3.825   4.794   0.151 -0.3340  0.0248 -0.0794
 1599SOL    HW1 6238   3.822   4.835   0.237 -0.3165 -1.1975  0.5217
 1599SOL    HW2 6239   3.916   4.765   0.141 -0.4497 -0.2840 -0.2830
 1600SOL     OW 6240   5.527   2.067   7.987  0.2312 -0.0490 -0.3620
 1600SOL    HW1 6241   5.603   2.048   8.041  0.4049  0.2947 -0.4782
 1600SOL    HW2 6242   5.497   1.982   7.956 -0.6581 -0.3892  1.3147
 1601SOL     OW 6243   2.084   3.152   5.758  0.2680 -0.2419  0.4952
 1601SOL    HW1 6244   2.148   3.223   5.758 -0.3508  0.3455 -0.5345
 1601SOL    HW2 6245   2.112   3.093   5.689 -1.0999  0.8237 -1.0571
 1602SOL     OW 6246   7.202   1.952  12.093  0.4757 -0.1136  0.5394
 1602SOL    HW1 6247   7.213   2.027  12.152  1.0207 -0.3566  0.7473
 1602SOL    HW2 6248   7.257   1.884  12.130 -2.1838 -1.6178  1.9863
 1603SOL     OW 6249   4.907   3.739  12.358  0.2020 -0.1041  0.0353
 1603SOL    HW1 6250   4.906   3.705  12.268  0.1937 -0.7195  0.2599
 1603SOL    HW2 6251   4.934   3.664  12.411  0.5453  0.3510  0.5106
 1604SOL     OW 6252   6.075   1.119  10.331 -0.3127 -0.7162  0.3992
 1604SOL    HW1 6253   6.153   1.162  10.296 -2.1994  1.6209 -1.3059
 1604SOL    HW2 6254   6.091   1.025  10.317  1.3721 -0.2014 -1.7735
 1605SOL     OW 6255   1.267   6.336   3.210  0.3219 -0.8438 -0.3447
 1605SOL    HW1 6256   1.356   6.312   3.184  0.6489  0.8982 -0.9308
 1605SOL    HW2 6257   1.239   6.401   3.146 -1.3088 -1.2102 -0.0449
 1606SOL     OW 6258   3.697   0.850   6.938 -0.0659 -0.2573  0.3631
 1606SOL    HW1 6259   3.788   0.835   6.963  0.2700 -1.3831 -1.3066
 1606SOL    HW2 6260   3.703   0.908   6.862 -0.9765  2.2574  2.0941
 1607SOL     OW 6261   5.204   3.708   3.389 -0.1718  0.5355 -0.7125
 1607SOL    HW1 6262   5.277   3.688   3.447 -0.6974 -0.6145 -0.4079
 1607SOL    HW2 6263   5.231   3.673   3.304  0.6053  2.2361 -1.1882
 1608SOL     OW 6264   6.263   4.775   2.770 -0.0340 -0.0769 -0.0310
 1608SOL    HW1 6265   6.175   4.810   2.786  0.0046  0.9161 -1.7389
 1608SOL    HW2 6266   6.316   4.809   2.842 -0.5917  1.1588 -0.1731
 1609SOL     OW 6267   5.160   7.722  12.042  0.1480 -0.1694  0.4607
 1609SOL    HW1 6268   5.131   7.803  12.085 -0.0498 -0.6628  1.2911
 1609SOL    HW2 6269   5.079   7.675  12.023  0.1831  0.3828 -1.1959
 1610SOL     OW 6270   4.474   6.834   9.780  0.2203 -0.3817  0.4132
 1610SOL    HW1 6271   4.521   6.904   9.824 -0.3187 -0.2020  0.7182
 1610SOL    HW2 6272   4.416   6.878   9.718  0.5458 -0.6059 -0.0561
 1611SOL     OW 6273   1.529   3.675   8.132 -0.2329  0.3775  0.3842
 1611SOL    HW1 6274   1.446   3.719   8.116 -1.7805 -2.0555  1.2383
 1611SOL    HW2 6275   1.560   3.711   8.215 -1.5947 -0.3144  1.2065
 1612SOL     OW 6276   2.650   0.983  11.659  0.3479  0.0849  0.9803
 1612SOL    HW1 6277   2.703   1.019  11.730 -0.9129  4.1549  0.1532
 1612SOL    HW2 6278   2.560   1.002  11.684 -0.4310 -2.0341  0.0375
 1613SOL     OW 6279   7.228   6.105   7.285 -0.1960  0.1920  0.5475
 1613SOL    HW1 6280   7.305   6.150   7.250  0.8393 -0.4449  1.9188
 1613SOL    HW2 6281   7.176   6.175   7.325 -0.8940  0.7783 -1.2514
 1614SOL     OW 6282   0.965   6.968   7.487 -0.4521  0.4117 -0.0253
 1614SOL    HW1 6283   0.951   6.874   7.482  1.5793  0.1243 -2.1282
 1614SOL    HW2 6284   0.946   6.991   7.578  0.6468 -2.3305  0.9812
 1615SOL     OW 6285   6.705   1.335  11.041  0.4964  0.2148  0.0951
 1615SOL    HW1 6286   6.657   1.279  10.980  1.5566  0.0338 -0.6103
 1615SOL    HW2 6287   6.653   1.415  11.047  0.1759  0.0817 -0.7474
 1616SOL     OW 6288   2.511   7.655   2.214 -0.0066 -0.3604 -0.4284
 1616SOL    HW1 6289   2.430   7.605   2.227 -1.4015  2.2513  1.8513
 1616SOL    HW2 6290   2.497   7.703   2.132  0.4279 -1.8978 -1.4496
 1617SOL     OW 6291   4.312   0.658   2.868  0.3725 -0.0086  0.3139
 1617SOL    HW1 6292   4.332   0.705   2.787  2.6753 -0.6030  0.4704
 1617SOL    HW2 6293   4.366   0.579   2.865 -1.7807 -1.6221  1.0608
 1618SOL     OW 6294   3.893   7.161   5.266  0.3923  0.5261  0.0898
 1618SOL    HW1 6295   3.950   7.175   5.342  1.2494 -0.2011 -0.4086
 1618SOL    HW2 6296   3.945   7.109   5.206 -1.1866 -1.1251  0.0831
 1619SOL     OW 6297   0.252   6.444   9.834 -1.0506  0.6169 -0.7901
 1619SOL    HW1 6298   0.167   6.468   9.870 -0.0497  2.5181  0.4499
 1619SOL    HW2 6299   0.244   6.462   9.740 -1.8162  1.4206 -0.5852
 1620SOL     OW 6300   2.125   1.431   3.005 -0.2178  0.2145 -0.1867
 1620SOL    HW1 6301   2.077   1.350   3.018  0.6244 -0.3210 -0.3064
 1620SOL    HW2 6302   2.060   1.500   3.017 -0.9876 -0.4799 -0.2725
 1621SOL     OW 6303   5.840   7.814  10.710 -0.2151 -0.0614  0.5955
 1621SOL    HW1 6304   5.799   7.810  10.624 -1.2444 -1.5771  1.1065
 1621SOL    HW2 6305   5.931   7.834  10.693 -0.3297 -0.7109 -0.8852
 1622SOL     OW 6306   2.601   1.220   0.653 -0.0426  0.4556 -0.5493
 1622SOL    HW1 6307   2.621   1.140   0.604  0.3076 -0.5127  1.0964
 1622SOL    HW2 6308   2.643   1.208   0.738 -2.1178  1.2376  0.6808
 1623SOL     OW 6309   0.367   6.499   2.477  0.1625 -0.1162 -0.7486
 1623SOL    HW1 6310   0.438   6.458   2.525  0.6362  0.5001 -0.9044
 1623SOL    HW2 6311   0.345   6.436   2.408 -0.2302 -0.8105 -0.0116
 1624SOL     OW 6312   7.067   4.324   1.776  0.7178  0.0131  0.1517
 1624SOL    HW1 6313   7.096   4.370   1.698 -0.9906  1.3351  0.2496
 1624SOL    HW2 6314   7.036   4.239   1.744 -0.9152  0.9253 -0.7858
 1625SOL     OW 6315   6.416   0.441   7.863  0.3968 -0.1694 -0.3991
 1625SOL    HW1 6316   6.411   0.496   7.785  2.2956  0.9828  0.2186
 1625SOL    HW2 6317   6.488   0.381   7.844 -0.0370 -0.7995 -0.0684
 1626SOL     OW 6318   6.518   4.374   2.921 -0.1177  0.0555 -0.0307
 1626SOL    HW1 6319   6.533   4.468   2.927 -1.2429  0.1824  1.2885
 1626SOL    HW2 6320   6.502   4.358   2.828  0.1224  1.1516 -0.2766
 1627SOL     OW 6321   1.159   7.522   9.966  0.1617 -0.1647  0.6742
 1627SOL    HW1 6322   1.200   7.495  10.048 -0.4341  0.6667  1.2579
 1627SOL    HW2 6323   1.141   7.616   9.978  0.4104  0.0575 -0.5457
 1628SOL     OW 6324   5.689   1.914   3.806 -0.3590  0.2387  0.2730
 1628SOL    HW1 6325   5.716   2.006   3.797  1.8909 -0.3792  0.1872
 1628SOL    HW2 6326   5.634   1.913   3.884 -0.7913  1.7233  0.0317
 1629SOL     OW 6327   6.758   2.728   1.114  0.1496 -0.0438  0.4911
 1629SOL    HW1 6328   6.692   2.764   1.174 -1.5657 -2.7442  0.3669
 1629SOL    HW2 6329   6.726   2.752   1.027 -0.0124 -0.3172  0.4753
 1630SOL     OW 6330   4.324   3.307  12.127 -0.1102 -0.2871 -0.0914
 1630SOL    HW1 6331   4.411   3.337  12.102  0.6802 -2.4886 -0.1294
 1630SOL    HW2 6332   4.302   3.360  12.204  1.9464 -0.7554  0.8877
 1631SOL     OW 6333   6.971   0.802   1.066 -0.5338  0.2246  0.2545
 1631SOL    HW1 6334   7.047   0.859   1.064  0.7442 -1.3776  1.2144
 1631SOL    HW2 6335   6.980   0.747   0.989 -0.4339 -0.3242  0.6574
 1632SOL     OW 6336   0.447   3.238   5.555  0.3389 -0.1433  0.3761
 1632SOL    HW1 6337   0.384   3.310   5.565 -0.4071 -0.6472 -0.5223
 1632SOL    HW2 6338   0.408   3.181   5.490  1.6378 -0.5857 -0.0553
 1633SOL     OW 6339   0.318   2.905   6.996  0.3379  0.3823 -0.3892
 1633SOL    HW1 6340   0.231   2.926   7.029  0.0364 -0.4944 -0.6182
 1633SOL    HW2 6341   0.312   2.815   6.965  1.1308  0.5484 -1.0788
 1634SOL     OW 6342   6.098   7.573   7.387  0.1129 -0.6520 -0.2978
 1634SOL    HW1 6343   6.075   7.664   7.368  0.9630 -0.7029 -1.7724
 1634SOL    HW2 6344   6.122   7.573   7.480  0.0573  0.6177 -0.2587
 1635SOL     OW 6345   3.485   6.435   7.635  0.2978 -0.0491  0.3241
 1635SOL    HW1 6346   3.515   6.526   7.629 -1.9354  0.7536  0.4029
 1635SOL    HW2 6347   3.541   6.388   7.573 -0.0126  1.8225 -1.5157
 1636SOL     OW 6348   0.233   5.168   8.402  0.4640  0.1016  0.5126
 1636SOL    HW1 6349   0.260   5.096   8.459  1.8532 -0.5357 -0.8945
 1636SOL    HW2 6350   0.268   5.146   8.316 -0.4748  1.6723 -0.3261
 1637SOL     OW 6351   0.623   3.113   0.750  0.4728  0.3538 -0.4009
 1637SOL    HW1 6352   0.654   3.035   0.797 -0.8430  1.0504  1.7736
 1637SOL    HW2 6353   0.702   3.155   0.719  1.3780 -0.4781  0.6908
 1638SOL     OW 6354   4.432   7.810   2.686  0.2953 -0.0228  0.2107
 1638SOL    HW1 6355   4.391   7.732   2.723 -1.0289  0.3528 -0.4144
 1638SOL    HW2 6356   4.513   7.778   2.646 -0.5930 -1.2110 -0.6873
 1639SOL     OW 6357   2.433   5.078   6.275  0.1598  0.4982  0.2377
 1639SOL    HW1 6358   2.402   5.017   6.209 -1.4764  0.5524  0.9002
 1639SOL    HW2 6359   2.527   5.063   6.280  0.0257 -0.8267 -0.7545
 1640SOL     OW 6360   3.607   5.478   9.102 -0.0471 -0.2246 -0.1409
 1640SOL    HW1 6361   3.695   5.487   9.138  0.0192 -1.0325 -0.0809
 1640SOL    HW2 6362   3.601   5.547   9.036 -0.1482  1.2581  1.3384
 1641SOL     OW 6363   5.030   1.749   8.313 -0.3450  0.6612  0.0025
 1641SOL    HW1 6364   5.085   1.693   8.258  0.7581  1.2305  0.4845
 1641SOL    HW2 6365   4.949   1.700   8.325  0.3684 -0.5609 -0.0702
 1642SOL     OW 6366   6.963   5.261   2.790 -0.0956 -0.2733  0.2778
 1642SOL    HW1 6367   6.987   5.354   2.798 -1.4952  0.1209  0.1163
 1642SOL    HW2 6368   7.043   5.214   2.815  0.0016  0.9401  2.5771
 1643SOL     OW 6369   2.589   2.810   8.725  0.3886 -0.3585 -0.0905
 1643SOL    HW1 6370   2.642   2.732   8.710 -1.2198 -1.2647 -1.3541
 1643SOL    HW2 6371   2.554   2.799   8.813 -0.1771 -1.3022 -0.4192
 1644SOL     OW 6372   2.589   1.350  11.000  0.4135  0.1213  0.0541
 1644SOL    HW1 6373   2.591   1.446  10.998 -0.7108  0.1510 -1.3776
 1644SOL    HW2 6374   2.504   1.328  11.036  0.9406 -0.3727  1.0367
 1645SOL     OW 6375   2.211   2.524   3.084  0.5595  0.7500 -0.0659
 1645SOL    HW1 6376   2.280   2.579   3.124 -0.1770  1.7708 -0.1618
 1645SOL    HW2 6377   2.201   2.451   3.146  3.4192 -0.7978 -1.2162
 1646SOL     OW 6378   7.586   2.488   4.083  0.1768  0.0371  0.3299
 1646SOL    HW1 6379   7.625   2.538   4.011 -0.0983  0.1352  0.2491
 1646SOL    HW2 6380   7.550   2.555   4.141  0.1867 -0.0522  0.4387
 1647SOL     OW 6381   7.004   4.901  11.242 -0.3856 -0.4850 -0.1162
 1647SOL    HW1 6382   7.071   4.927  11.305 -0.3022  0.8513 -0.7099
 1647SOL    HW2 6383   6.942   4.849  11.292 -0.0033  0.0386  0.9229
 1648SOL     OW 6384   6.282   2.201   3.592  0.2120  0.2091  0.2956
 1648SOL    HW1 6385   6.342   2.276   3.594  0.1962  0.2557  3.1105
 1648SOL    HW2 6386   6.300   2.154   3.674 -0.4427 -2.3756 -0.9380
 1649SOL     OW 6387   1.027   5.990   8.916  0.7321 -0.4919 -0.5221
 1649SOL    HW1 6388   1.080   5.913   8.937  2.1431  0.0571 -1.8384
 1649SOL    HW2 6389   1.079   6.065   8.946  0.3268  0.0242 -1.0599
 1650SOL     OW 6390   1.391   1.505   9.022  0.3443 -0.1245 -0.0268
 1650SOL    HW1 6391   1.443   1.455   8.959 -0.3996 -1.8945  0.6835
 1650SOL    HW2 6392   1.428   1.482   9.107 -1.3805 -1.2481  0.4804
 1651SOL     OW 6393   1.572   6.281   8.399 -0.2995 -0.0519 -0.0882
 1651SOL    HW1 6394   1.659   6.318   8.384 -0.1903 -0.7135 -1.2118
 1651SOL    HW2 6395   1.512   6.342   8.356 -0.4157  0.5179  0.8738
 1652SOL     OW 6396   1.481   5.136   6.559  0.2588  0.0558 -0.0161
 1652SOL    HW1 6397   1.426   5.194   6.612 -0.3964 -1.1324  0.6410
 1652SOL    HW2 6398   1.548   5.104   6.618 -0.4331 -1.2202  0.1091
 1653SOL     OW 6399   7.152   6.464   7.504 -0.1098  0.0223 -0.3658
 1653SOL    HW1 6400   7.246   6.450   7.513  0.0176  1.9198  2.4516
 1653SOL    HW2 6401   7.143   6.559   7.492 -1.6871  0.1261  1.2293
 1654SOL     OW 6402   0.838   7.141  10.918  0.3817 -0.2726 -0.4396
 1654SOL    HW1 6403   0.865   7.230  10.944 -0.1571 -1.0598  3.3868
 1654SOL    HW2 6404   0.751   7.153  10.880  0.3753  0.8731 -0.1160
 1655SOL     OW 6405   0.709   0.127   7.442 -0.7678 -0.0395 -0.2010
 1655SOL    HW1 6406   0.801   0.140   7.421 -0.5090 -0.4475  0.6359
 1655SOL    HW2 6407   0.704   0.039   7.478 -1.2269  0.4875  1.1121
 1656SOL     OW 6408   4.881   7.799   7.780 -0.2343 -0.3891  0.4047
 1656SOL    HW1 6409   4.968   7.815   7.743 -0.2330  1.2359  1.0392
 1656SOL    HW2 6410   4.829   7.874   7.753 -1.6676 -1.6636 -0.5355
 1657SOL     OW 6411   0.047   7.157   2.494 -0.2636  0.0830 -0.0722
 1657SOL    HW1 6412   0.125   7.169   2.440 -0.1853 -0.2197 -0.0277
 1657SOL    HW2 6413   0.066   7.080   2.547 -0.0330  0.8018  0.9262
 1658SOL     OW 6414   4.731   6.672  10.708  0.1663 -0.2372 -0.3933
 1658SOL    HW1 6415   4.801   6.675  10.643  0.9737 -0.4627  0.4389
 1658SOL    HW2 6416   4.769   6.711  10.786 -0.6921 -0.2353  0.0414
 1659SOL     OW 6417   4.660   7.330   2.877  0.6723 -0.2550  0.2954
 1659SOL    HW1 6418   4.667   7.326   2.781 -0.3318 -1.0827  0.2356
 1659SOL    HW2 6419   4.578   7.285   2.896 -0.7593  2.6181  1.3397
 1660SOL     OW 6420   0.149   6.638   7.535 -0.2917 -0.0867  0.3796
 1660SOL    HW1 6421   0.141   6.635   7.630  1.2535  0.6284  0.5631
 1660SOL    HW2 6422   0.100   6.715   7.508  0.2116  0.3637  0.7327
 1661SOL     OW 6423   1.068   7.869   8.847 -0.4261 -0.6625  0.2737
 1661SOL    HW1 6424   1.008   7.928   8.893  1.4659  1.0688  0.6681
 1661SOL    HW2 6425   1.027   7.855   8.762 -1.4854  0.3103  0.5894
 1662SOL     OW 6426   7.395   0.813   3.171 -0.3674  0.0361 -0.3012
 1662SOL    HW1 6427   7.398   0.844   3.261 -0.1839 -0.1590 -0.2404
 1662SOL    HW2 6428   7.302   0.809   3.150 -0.3780  1.3534 -0.5598
 1663SOL     OW 6429   7.363   6.688  11.753 -0.3313  0.0330  0.2479
 1663SOL    HW1 6430   7.407   6.768  11.780  0.1191 -0.1528  0.0767
 1663SOL    HW2 6431   7.434   6.625  11.737 -0.7307 -1.0406  2.3244
 1664SOL     OW 6432   5.957   1.772  10.590  0.9264 -0.1120  0.4290
 1664SOL    HW1 6433   5.957   1.838  10.520  1.0388 -0.4166  0.1374
 1664SOL    HW2 6434   5.973   1.689  10.544 -1.7671 -0.7319  0.4331
 1665SOL     OW 6435   5.049   3.504   3.003  0.3361 -0.2495 -0.0804
 1665SOL    HW1 6436   5.041   3.440   2.933  2.2317 -0.0969 -0.5138
 1665SOL    HW2 6437   5.044   3.589   2.958  1.3325 -0.1503 -0.0309
 1666SOL     OW 6438   7.689   4.939   2.965 -0.0809 -0.0671 -0.3043
 1666SOL    HW1 6439   7.751   4.879   2.925 -1.5186 -1.2539 -0.8527
 1666SOL    HW2 6440   7.712   5.025   2.930  0.9075 -0.5588 -0.8985
 1667SOL     OW 6441   0.623   2.264   5.373 -0.2782  0.3092 -0.3283
 1667SOL    HW1 6442   0.634   2.276   5.467  1.0784 -0.4125 -0.3735
 1667SOL    HW2 6443   0.634   2.169   5.359 -0.7522  0.3656 -1.1786
 1668SOL     OW 6444   6.989   3.481   0.857 -0.2173  0.3417  0.1272
 1668SOL    HW1 6445   6.936   3.554   0.824  0.5136  0.7338 -0.2211
 1668SOL    HW2 6446   7.073   3.521   0.879 -0.3024 -0.1342  1.3863
 1669SOL     OW 6447   7.663   6.831  10.245 -0.8177 -0.5791  0.1994
 1669SOL    HW1 6448   7.720   6.760  10.217 -1.1895 -1.1978  0.9772
 1669SOL    HW2 6449   7.675   6.899  10.178  1.3772 -0.3932  0.7107
 1670SOL     OW 6450   7.270   5.349  11.709 -0.2782 -0.2383  0.3985
 1670SOL    HW1 6451   7.209   5.277  11.725 -0.2859 -0.2291  0.4096
 1670SOL    HW2 6452   7.356   5.308  11.701 -0.4824 -0.4168 -1.1659
 1671SOL     OW 6453   4.585   7.013   8.611 -0.2694 -0.0843 -0.4583
 1671SOL    HW1 6454   4.525   6.988   8.541  1.3395 -0.8457 -1.6385
 1671SOL    HW2 6455   4.617   7.099   8.585 -0.3786  0.0366 -0.1841
 1672SOL     OW 6456   0.105   6.630   3.816 -0.0495  0.5225 -0.4613
 1672SOL    HW1 6457   0.051   6.668   3.746 -0.3653 -0.2434 -0.6429
 1672SOL    HW2 6458   0.194   6.638   3.783 -0.1767  0.3908 -0.8417
 1673SOL     OW 6459   1.473   1.500   8.092 -0.0356  0.0479  0.0484
 1673SOL    HW1 6460   1.536   1.571   8.078  0.4977 -0.1460  1.3827
 1673SOL    HW2 6461   1.519   1.437   8.146 -0.8407 -0.8768 -0.3199
 1674SOL     OW 6462   1.818   7.880  11.003 -0.1271  0.2875  0.5670
 1674SOL    HW1 6463   1.900   7.875  11.052  1.4954  1.4975 -1.8020
 1674SOL    HW2 6464   1.803   7.974  10.992 -0.9564  0.0618 -0.4056
 1675SOL     OW 6465   1.708   6.322   7.179 -0.3987 -0.1903 -0.2851
 1675SOL    HW1 6466   1.661   6.357   7.103  1.1393  1.8999 -0.3760
 1675SOL    HW2 6467   1.654   6.347   7.254 -0.6781 -0.0199 -0.5389
 1676SOL     OW 6468   7.898   2.716   0.005  0.1838  0.0815  0.2507
 1676SOL    HW1 6469   7.944   2.633  -0.008  0.4115  0.4860 -1.9129
 1676SOL    HW2 6470   7.821   2.692   0.056  0.1594 -1.5049 -0.4503
 1677SOL     OW 6471   2.735   4.427   3.610  0.1267  0.0567  0.2034
 1677SOL    HW1 6472   2.814   4.374   3.620  0.1072  0.0114  0.1151
 1677SOL    HW2 6473   2.667   4.365   3.583  0.3302  0.2732 -0.8646
 1678SOL     OW 6474   7.466   0.470   1.762  0.0168  0.4080  0.2683
 1678SOL    HW1 6475   7.412   0.547   1.749 -0.0723  0.2286 -0.5041
 1678SOL    HW2 6476   7.551   0.493   1.723 -0.5521 -0.4933 -1.6373
 1679SOL     OW 6477   2.349   7.749   5.824  0.1408 -0.2643  0.0616
 1679SOL    HW1 6478   2.393   7.665   5.814 -0.4483 -0.5522 -0.1515
 1679SOL    HW2 6479   2.289   7.736   5.898  1.9899  0.8041  1.8474
 1680SOL     OW 6480   5.461   6.960   4.245  0.1614 -0.2513  0.3172
 1680SOL    HW1 6481   5.545   7.005   4.231 -0.1103  0.0709 -0.2933
 1680SOL    HW2 6482   5.454   6.953   4.340  0.7531 -0.0394  0.3852
 1681SOL     OW 6483   4.678   3.044   5.379 -0.3640  0.5272  0.2115
 1681SOL    HW1 6484   4.608   3.074   5.438 -0.0335  0.4023  0.6745
 1681SOL    HW2 6485   4.654   2.954   5.358 -0.3430  0.4823  0.3750
 1682SOL     OW 6486   4.332   4.135   2.926  0.6729  0.4717  0.0256
 1682SOL    HW1 6487   4.288   4.082   2.860 -0.5016  1.0277  0.3181
 1682SOL    HW2 6488   4.383   4.199   2.876  0.2587  0.5134 -0.3509
 1683SOL     OW 6489   1.184   2.913  11.625  0.5856 -0.1139  0.6672
 1683SOL    HW1 6490   1.204   2.820  11.613 -1.1322 -0.4260  0.0428
 1683SOL    HW2 6491   1.187   2.949  11.536 -0.9876 -0.0638  0.6170
 1684SOL     OW 6492   3.653   6.569   1.394  0.4300 -0.2677  0.0786
 1684SOL    HW1 6493   3.610   6.622   1.462  1.0809  2.7863 -1.6849
 1684SOL    HW2 6494   3.746   6.571   1.418  0.8627  1.9908 -1.4597
 1685SOL     OW 6495   0.651   5.530   5.148 -0.0512  0.0867  0.1765
 1685SOL    HW1 6496   0.737   5.566   5.170 -1.4727  3.3538  1.0445
 1685SOL    HW2 6497   0.645   5.539   5.053  0.4022  0.2743  0.1629
 1686SOL     OW 6498   3.589   6.368  11.773  0.0943  0.5786 -0.0897
 1686SOL    HW1 6499   3.670   6.413  11.753 -0.5820  1.2439 -1.4682
 1686SOL    HW2 6500   3.569   6.392  11.864  2.5144 -1.3411  1.0581
 1687SOL     OW 6501   4.244   4.896   0.725  0.2458 -0.5217  0.7648
 1687SOL    HW1 6502   4.252   4.838   0.801 -0.8687 -2.3031 -0.4024
 1687SOL    HW2 6503   4.161   4.871   0.685  1.7176 -1.0486 -2.1586
 1688SOL     OW 6504   3.467   3.482   7.340  0.1343 -0.0903 -0.9203
 1688SOL    HW1 6505   3.400   3.426   7.380  0.4296 -0.2148 -0.6014
 1688SOL    HW2 6506   3.531   3.497   7.409 -0.0169  0.7728 -0.9458
 1689SOL     OW 6507   4.123   6.853   8.495 -0.4810  0.0697 -0.7997
 1689SOL    HW1 6508   4.168   6.778   8.535 -0.0711 -0.5033 -2.2670
 1689SOL    HW2 6509   4.139   6.926   8.555  0.2163 -0.7200 -0.0011
 1690SOL     OW 6510   3.619   4.579  11.640  0.2775 -0.1582  0.5601
 1690SOL    HW1 6511   3.621   4.523  11.717  0.2726 -0.9993 -0.0378
 1690SOL    HW2 6512   3.680   4.650  11.659  1.1870 -1.0081  0.8420
 1691SOL     OW 6513   3.024   4.710   0.850  0.4129  0.0773 -0.0653
 1691SOL    HW1 6514   3.001   4.731   0.759  1.2435 -0.6629 -0.4611
 1691SOL    HW2 6515   2.961   4.642   0.875 -0.4397  0.9486  0.2634
 1692SOL     OW 6516   1.450   3.853   2.482  0.2122 -0.2673  0.4826
 1692SOL    HW1 6517   1.488   3.855   2.394 -0.7270  1.6651  0.0619
 1692SOL    HW2 6518   1.394   3.930   2.485 -2.9098 -2.3983  1.4167
 1693SOL     OW 6519   0.355   1.386   6.590  0.1641  0.0699  0.2151
 1693SOL    HW1 6520   0.375   1.377   6.683 -1.5194 -0.7836  0.5392
 1693SOL    HW2 6521   0.357   1.296   6.557  0.2042  0.3167 -0.4498
 1694SOL     OW 6522   2.557   2.312   8.545  0.0874 -0.6965  0.0233
 1694SOL    HW1 6523   2.632   2.343   8.495 -0.0789 -0.0829  0.1532
 1694SOL    HW2 6524   2.560   2.216   8.536  0.2945 -0.6145 -0.8081
 1695SOL     OW 6525   4.770   1.131   2.287  0.4187 -0.1387 -0.2176
 1695SOL    HW1 6526   4.758   1.174   2.203 -2.0601  2.4349  1.2518
 1695SOL    HW2 6527   4.715   1.053   2.283 -1.6237  1.2329 -0.2691
 1696SOL     OW 6528   6.688   4.074   2.267 -0.7755 -0.7183 -0.3540
 1696SOL    HW1 6529   6.594   4.088   2.269 -0.6280  0.2405  1.0140
 1696SOL    HW2 6530   6.704   4.011   2.338 -0.4338 -1.2920 -0.9252
 1697SOL     OW 6531   4.784   1.817   8.963  0.3667  0.2319  0.1241
 1697SOL    HW1 6532   4.781   1.813   8.867 -1.2103 -2.8934  0.1988
 1697SOL    HW2 6533   4.793   1.911   8.982 -0.5266  1.0910 -3.0405
 1698SOL     OW 6534   6.530   4.523   1.283  0.2930 -0.1990 -0.3633
 1698SOL    HW1 6535   6.550   4.457   1.216 -0.3098 -1.1756  0.3850
 1698SOL    HW2 6536   6.616   4.549   1.316  0.9386  2.8230 -3.7188
 1699SOL     OW 6537   3.092   0.041   2.225  0.2585  0.4616  0.6213
 1699SOL    HW1 6538   3.182   0.070   2.237  0.5681 -0.6426  1.1307
 1699SOL    HW2 6539   3.095  -0.021   2.152 -0.1780  0.8249  0.2925
 1700SOL     OW 6540   1.188   1.359   2.305 -0.5145 -0.2817  0.3629
 1700SOL    HW1 6541   1.126   1.416   2.350 -0.2866  1.0644 -0.9791
 1700SOL    HW2 6542   1.261   1.350   2.366 -0.7558  0.4830  0.7794
 1701SOL     OW 6543   0.586   5.425   3.724  0.1495  0.4820 -0.3169
 1701SOL    HW1 6544   0.626   5.410   3.810  0.7989  1.3609 -0.4486
 1701SOL    HW2 6545   0.657   5.409   3.662  1.1566  4.3915 -0.4589
 1702SOL     OW 6546   1.011   1.838   7.050  0.5097  0.0575  0.5248
 1702SOL    HW1 6547   0.980   1.888   7.125  0.3384  1.8666 -0.6909
 1702SOL    HW2 6548   0.936   1.834   6.990  1.0598 -0.1150 -0.1682
 1703SOL     OW 6549   1.401   2.997   1.845 -0.5608 -0.1741  0.1005
 1703SOL    HW1 6550   1.412   3.069   1.782 -1.0401 -0.0338  0.1773
 1703SOL    HW2 6551   1.312   3.006   1.877  0.4467  1.4018  2.8074
 1704SOL     OW 6552   5.078   2.646  11.426  0.5600 -0.1823  0.2578
 1704SOL    HW1 6553   5.161   2.623  11.384 -0.2189 -1.9390 -0.4433
 1704SOL    HW2 6554   5.028   2.691  11.358  0.2720 -0.7262  0.1049
 1705SOL     OW 6555   2.860   1.653   6.392 -0.2262  0.2104 -0.2006
 1705SOL    HW1 6556   2.765   1.657   6.394 -0.3232 -1.3410 -0.3103
 1705SOL    HW2 6557   2.884   1.609   6.473  0.1097 -2.5989 -1.6909
 1706SOL     OW 6558   3.947   4.103   5.483 -0.0591 -0.2069  0.3744
 1706SOL    HW1 6559   3.969   4.071   5.396  0.0090  0.8442 -0.0053
 1706SOL    HW2 6560   3.859   4.139   5.474 -0.6319 -1.3496  1.0909
 1707SOL     OW 6561   7.616   2.672   3.187 -0.2022 -0.3260  0.2763
 1707SOL    HW1 6562   7.620   2.639   3.276 -0.5988 -1.5377 -0.1366
 1707SOL    HW2 6563   7.523   2.681   3.169 -0.1789 -1.4618 -0.4892
 1708SOL     OW 6564   7.603   3.748   7.175 -0.2218  0.3443  0.5542
 1708SOL    HW1 6565   7.589   3.678   7.238  1.6928  0.7484  1.5181
 1708SOL    HW2 6566   7.696   3.772   7.186 -0.0608  1.0531 -1.7791
 1709SOL     OW 6567   7.202   1.480   2.452  0.2890 -0.1607  0.0969
 1709SOL    HW1 6568   7.110   1.470   2.430  0.2078 -1.1459  0.7714
 1709SOL    HW2 6569   7.249   1.459   2.371 -0.0802  0.6213 -0.3221
 1710SOL     OW 6570   2.679   5.375   9.548 -0.0144  0.0688  0.8573
 1710SOL    HW1 6571   2.671   5.305   9.483  0.2854 -0.1715  1.0717
 1710SOL    HW2 6572   2.760   5.420   9.525  0.4456 -0.4343  1.4511
 1711SOL     OW 6573   1.460   5.890  10.350 -0.2712  0.0076  0.0707
 1711SOL    HW1 6574   1.467   5.835  10.428  2.3729 -1.2109 -0.8709
 1711SOL    HW2 6575   1.493   5.975  10.377  1.2211 -0.5793  0.2140
 1712SOL     OW 6576   4.748   1.274   8.430 -0.8184  0.3449  0.2587
 1712SOL    HW1 6577   4.704   1.240   8.352 -2.3923  1.1136  0.7669
 1712SOL    HW2 6578   4.720   1.366   8.435  1.7085  1.1959  0.0311
 1713SOL     OW 6579   1.978   5.277   9.678  0.3539  0.0831 -0.0244
 1713SOL    HW1 6580   1.946   5.280   9.588 -0.5786 -0.3070  0.2870
 1713SOL    HW2 6581   1.929   5.206   9.719 -1.5360  2.2218  1.6713
 1714SOL     OW 6582   1.073   0.832  11.679  0.5795  0.7841  0.2393
 1714SOL    HW1 6583   1.000   0.872  11.631 -0.7161 -1.2414  0.4049
 1714SOL    HW2 6584   1.046   0.836  11.771  0.5163 -0.2690  0.2732
 1715SOL     OW 6585   7.117   5.873  11.105  0.8298 -0.3908  0.3723
 1715SOL    HW1 6586   7.062   5.875  11.027  0.4036 -0.5939  0.6635
 1715SOL    HW2 6587   7.203   5.902  11.075  1.0921 -1.9469 -0.5038
 1716SOL     OW 6588   0.807   3.176   4.526  0.2893 -0.3331 -0.2381
 1716SOL    HW1 6589   0.845   3.089   4.538  0.8777 -0.2456 -1.3076
 1716SOL    HW2 6590   0.785   3.206   4.615  2.2689 -0.6065  0.3898
 1717SOL     OW 6591   2.877   1.969  10.056 -0.3081 -0.5990 -0.1395
 1717SOL    HW1 6592   2.959   2.017  10.048 -1.1606  0.9211 -0.0026
 1717SOL    HW2 6593   2.886   1.920  10.138 -0.2716  1.0817  0.9076
 1718SOL     OW 6594   2.975   6.741   4.179  0.4044 -0.2604 -0.1529
 1718SOL    HW1 6595   2.939   6.729   4.091  1.4692  0.2562 -0.6789
 1718SOL    HW2 6596   2.913   6.696   4.237 -0.9187  0.3511 -1.0394
 1719SOL     OW 6597   4.155   2.056   9.636  0.7267 -0.1788 -0.5466
 1719SOL    HW1 6598   4.249   2.057   9.650  0.4825 -0.9470  1.3196
 1719SOL    HW2 6599   4.145   2.044   9.541  2.4802 -0.1955 -0.7543
 1720SOL     OW 6600   6.742   0.178  11.150  0.5161 -0.7374  0.1670
 1720SOL    HW1 6601   6.712   0.261  11.188 -3.4857 -0.0076 -3.6985
 1720SOL    HW2 6602   6.693   0.111  11.197 -1.9073 -0.1151 -1.2812
 1721SOL     OW 6603   6.513   2.933   6.430 -0.1848  0.4327  0.1471
 1721SOL    HW1 6604   6.530   3.003   6.492 -0.2542  0.0871  0.5570
 1721SOL    HW2 6605   6.522   2.852   6.480 -2.2418  0.1843  0.2278
 1722SOL     OW 6606   2.557   6.035  10.046 -0.1566  0.0510 -0.3835
 1722SOL    HW1 6607   2.613   6.085  10.106  0.6782  0.2438 -1.3035
 1722SOL    HW2 6608   2.554   6.087   9.966 -1.2689 -0.1997 -0.5214
 1723SOL     OW 6609   0.874   7.809   3.336 -0.2007  0.2011  0.5021
 1723SOL    HW1 6610   0.784   7.841   3.343  0.0318  0.7355  1.2088
 1723SOL    HW2 6611   0.921   7.853   3.407  1.1615  1.7371 -1.2461
 1724SOL     OW 6612   5.831   4.083   5.395 -0.1200  0.1987  0.3475
 1724SOL    HW1 6613   5.872   4.130   5.467 -1.4440 -0.5701  1.6824
 1724SOL    HW2 6614   5.863   3.993   5.403 -0.2357  0.1152 -0.0709
 1725SOL     OW 6615   7.174   0.325   2.247  0.1546 -0.1222 -0.0511
 1725SOL    HW1 6616   7.168   0.406   2.298  0.2285  0.1967 -0.5341
 1725SOL    HW2 6617   7.219   0.264   2.304 -0.7641 -0.1246  0.6850
 1726SOL     OW 6618   4.986   5.236   1.661 -0.4079 -0.6479  0.6757
 1726SOL    HW1 6619   5.052   5.180   1.702  1.8774  0.8315 -0.7052
 1726SOL    HW2 6620   4.939   5.276   1.734  0.8295 -1.1155  1.7688
 1727SOL     OW 6621   5.416   6.271   8.958  0.3680 -0.7234  0.7944
 1727SOL    HW1 6622   5.477   6.202   8.931  0.0582 -0.2258 -1.3765
 1727SOL    HW2 6623   5.405   6.325   8.880 -2.7456 -0.7045  1.1037
 1728SOL     OW 6624   1.921   1.476   6.929 -0.0642  0.0471  0.2017
 1728SOL    HW1 6625   1.837   1.476   6.883  0.3541  2.9080 -0.8044
 1728SOL    HW2 6626   1.986   1.460   6.860  0.3187 -0.5292  0.6875
 1729SOL     OW 6627   1.537   3.617  11.462 -0.0885  0.1362 -0.6723
 1729SOL    HW1 6628   1.521   3.547  11.525  0.5825  0.3628 -0.2348
 1729SOL    HW2 6629   1.607   3.669  11.502  0.6280  0.0553 -1.7853
 1730SOL     OW 6630   2.176   4.519   8.575 -0.7600 -0.8809  0.1239
 1730SOL    HW1 6631   2.259   4.554   8.541 -0.8123 -0.6756  0.2047
 1730SOL    HW2 6632   2.202   4.445   8.629 -0.6926 -1.3628 -0.5632
 1731SOL     OW 6633   1.037   5.514   5.367  0.2839 -0.1910  0.1083
 1731SOL    HW1 6634   1.048   5.501   5.273 -0.4176 -0.8116  0.0984
 1731SOL    HW2 6635   1.034   5.425   5.403  0.7395  0.0438  0.7441
 1732SOL     OW 6636   7.320   5.999   1.474  0.1632  0.3539 -0.2821
 1732SOL    HW1 6637   7.415   5.995   1.459  0.0360 -0.5090 -0.9331
 1732SOL    HW2 6638   7.303   5.931   1.540 -0.0097  0.4720 -0.2048
 1733SOL     OW 6639   1.321   0.800   5.215  0.1605  0.2924  0.6813
 1733SOL    HW1 6640   1.357   0.870   5.161  1.5463 -0.3387  0.7550
 1733SOL    HW2 6641   1.382   0.793   5.289 -0.9854  0.2619  1.6550
 1734SOL     OW 6642   1.486   0.749  11.823  0.1891 -0.0077 -0.3279
 1734SOL    HW1 6643   1.536   0.668  11.829  0.9239  0.4905  0.5471
 1734SOL    HW2 6644   1.464   0.757  11.730  1.7588 -0.2487 -0.7409
 1735SOL     OW 6645   7.155   0.125   7.441  0.4690  0.6575 -0.2652
 1735SOL    HW1 6646   7.078   0.146   7.494 -0.3350  0.9931 -1.5288
 1735SOL    HW2 6647   7.148   0.031   7.425  1.3218  0.3240  1.1154
 1736SOL     OW 6648   5.729   1.419   0.485  0.2763  0.1905  0.0077
 1736SOL    HW1 6649   5.717   1.474   0.407 -2.0052 -1.0610 -0.5984
 1736SOL    HW2 6650   5.644   1.421   0.529  0.9019 -0.8457  1.3224
 1737SOL     OW 6651   5.780   7.602   9.253 -0.0548  0.0235  0.7784
 1737SOL    HW1 6652   5.834   7.607   9.174 -1.7789 -0.9484 -0.5334
 1737SOL    HW2 6653   5.763   7.509   9.265 -0.7771  0.2468  1.5953
 1738SOL     OW 6654   3.296   5.491   4.370  0.8278 -0.0012  0.0753
 1738SOL    HW1 6655   3.216   5.484   4.317  0.0985  0.2071  1.1325
 1738SOL    HW2 6656   3.358   5.537   4.312  0.1054  0.0831 -0.6620
 1739SOL     OW 6657   2.422   5.453   4.091  0.0527 -0.4308 -0.2815
 1739SOL    HW1 6658   2.505   5.442   4.138  0.0671  0.1179 -0.1652
 1739SOL    HW2 6659   2.415   5.376   4.036  0.0967 -1.0235  0.5278
 1740SOL     OW 6660   2.577   0.640  12.094 -0.2080  0.3138 -0.2226
 1740SOL    HW1 6661   2.566   0.635  11.999 -2.5709  2.0937 -0.1326
 1740SOL    HW2 6662   2.606   0.729  12.111  0.4302 -0.0550  0.7129
 1741SOL     OW 6663   1.888   2.452   6.656 -0.2664  0.0672 -0.6330
 1741SOL    HW1 6664   1.822   2.521   6.661 -0.4085 -0.1534  0.6445
 1741SOL    HW2 6665   1.845   2.374   6.691  0.4396 -0.2555 -0.4749
 1742SOL     OW 6666   0.829   5.368   1.624 -0.8357  0.4773  0.5542
 1742SOL    HW1 6667   0.893   5.414   1.570  0.8309 -0.3896  1.7244
 1742SOL    HW2 6668   0.814   5.427   1.699  0.6724 -0.4308  1.6307
 1743SOL     OW 6669   5.410   5.965  11.827  0.1795 -0.0802  0.5087
 1743SOL    HW1 6670   5.423   5.917  11.909 -2.9513  0.5189  1.4514
 1743SOL    HW2 6671   5.408   6.057  11.852 -1.3680  0.0834 -0.1374
 1744SOL     OW 6672   1.615   0.993  10.542 -0.6748  0.3607  0.5942
 1744SOL    HW1 6673   1.630   1.071  10.489  3.0897  0.2209  1.1778
 1744SOL    HW2 6674   1.592   0.925  10.479  1.8720  0.6418 -0.7861
 1745SOL     OW 6675   5.222   1.028   4.550  0.4481 -0.5846  0.2213
 1745SOL    HW1 6676   5.170   1.104   4.577 -0.8252 -1.5809  0.6722
 1745SOL    HW2 6677   5.157   0.962   4.526  1.5281 -1.5765 -0.0576
 1746SOL     OW 6678   2.618   4.677   9.257 -0.4513 -0.1462  0.1923
 1746SOL    HW1 6679   2.597   4.596   9.211 -1.8722 -0.4303  1.2450
 1746SOL    HW2 6680   2.682   4.651   9.324  0.7157  0.0420 -0.8183
 1747SOL     OW 6681   7.309   0.246   2.492 -0.0116  0.0745 -0.9090
 1747SOL    HW1 6682   7.379   0.302   2.524 -0.7112 -0.6991  2.2650
 1747SOL    HW2 6683   7.349   0.159   2.484 -0.3649 -0.1905  0.0820
 1748SOL     OW 6684   0.637   6.469   9.738 -0.2667  0.3405 -0.1891
 1748SOL    HW1 6685   0.711   6.410   9.727 -0.6588 -0.7272  2.2295
 1748SOL    HW2 6686   0.655   6.515   9.820 -1.7170  0.8645 -0.1321
 1749SOL     OW 6687   3.035   6.238   0.655 -0.0962  0.1885  0.3096
 1749SOL    HW1 6688   3.056   6.284   0.736  0.0828 -1.4715  1.2392
 1749SOL    HW2 6689   3.116   6.240   0.605  0.1937  0.0088  0.7698
 1750SOL     OW 6690   7.865   3.101  10.442 -0.0498  0.9015 -0.4145
 1750SOL    HW1 6691   7.855   3.020  10.491  1.4756  1.2131  0.4797
 1750SOL    HW2 6692   7.880   3.168  10.509  1.6980  1.4081 -1.2446
 1751SOL     OW 6693   2.495   0.586   0.398  0.1423  0.5781 -0.1696
 1751SOL    HW1 6694   2.405   0.559   0.380  0.2863  0.0983 -0.1744
 1751SOL    HW2 6695   2.492   0.623   0.486 -0.1332  0.9249 -0.3205
 1752SOL     OW 6696   3.042   6.080   0.933  0.2129 -0.4961 -0.3063
 1752SOL    HW1 6697   3.079   6.063   1.020  1.1999 -0.1922 -0.6409
 1752SOL    HW2 6698   3.083   6.014   0.877 -1.1840 -1.3333 -0.3777
 1753SOL     OW 6699   3.205   7.181   6.523  0.0865  0.0961 -0.0824
 1753SOL    HW1 6700   3.259   7.118   6.571 -1.2015 -1.4835 -0.6281
 1753SOL    HW2 6701   3.139   7.128   6.479 -2.1088  1.9348  0.7815
 1754SOL     OW 6702   5.972   3.089  10.191 -0.3163  0.3885 -0.1156
 1754SOL    HW1 6703   5.968   3.089  10.095  0.8122  1.6184 -0.1849
 1754SOL    HW2 6704   6.062   3.064  10.212 -0.8522 -1.0185  0.6809
 1755SOL     OW 6705   1.932   4.231   2.561  0.2863 -0.4933  0.4205
 1755SOL    HW1 6706   1.880   4.157   2.530  1.9047 -1.2948 -0.5723
 1755SOL    HW2 6707   1.939   4.217   2.656  0.4848 -1.5809  0.2662
 1756SOL     OW 6708   5.594   3.186   9.561 -0.2964 -0.3995 -0.8292
 1756SOL    HW1 6709   5.599   3.249   9.489  0.0540 -0.5376 -0.9291
 1756SOL    HW2 6710   5.559   3.106   9.521 -0.2966 -0.4127 -0.8032
 1757SOL     OW 6711   7.753   2.295   9.909 -0.1813 -0.1779 -0.2812
 1757SOL    HW1 6712   7.729   2.296   9.817 -1.7287  0.9409  0.0892
 1757SOL    HW2 6713   7.848   2.310   9.909  0.0483 -1.4478 -1.7109
 1758SOL     OW 6714   7.207   4.707  11.391  0.3747  0.4146 -0.2966
 1758SOL    HW1 6715   7.298   4.681  11.379  0.4712  1.7105 -2.9706
 1758SOL    HW2 6716   7.212   4.793  11.432  0.2641 -0.1950  1.0520
 1759SOL     OW 6717   5.912   7.552   5.912  0.1608 -0.7898 -0.0436
 1759SOL    HW1 6718   5.907   7.647   5.911 -0.9497 -0.8073  1.2901
 1759SOL    HW2 6719   5.821   7.523   5.919  0.5960 -1.8546  2.2394
 1760SOL     OW 6720   5.892   3.676  11.990  0.8978  1.1254  0.0056
 1760SOL    HW1 6721   5.853   3.595  12.023 -0.4231  2.0925  0.9374
 1760SOL    HW2 6722   5.985   3.657  11.985  1.0511  0.4507  3.1494
 1761SOL     OW 6723   5.150   5.703  11.216  0.7312 -0.1015 -0.0573
 1761SOL    HW1 6724   5.229   5.701  11.162  0.7533  1.9224 -0.1681
 1761SOL    HW2 6725   5.099   5.628  11.186  3.1114 -2.2580  0.8958
 1762SOL     OW 6726   2.875   4.351   8.821  0.2481  0.9865 -0.6231
 1762SOL    HW1 6727   2.930   4.278   8.850 -0.2909  0.7868 -0.0565
 1762SOL    HW2 6728   2.816   4.312   8.756 -0.5342  0.7178  0.2119
 1763SOL     OW 6729   4.880   2.592  11.602  0.3760  0.1650 -0.4911
 1763SOL    HW1 6730   4.961   2.594  11.551  0.7066 -0.3161  0.0058
 1763SOL    HW2 6731   4.908   2.602  11.693 -0.1728  0.5958 -0.3649
 1764SOL     OW 6732   3.161   6.311   4.845 -0.2128  0.1306  0.2925
 1764SOL    HW1 6733   3.074   6.274   4.862 -1.1503  1.9298 -0.3696
 1764SOL    HW2 6734   3.221   6.243   4.874 -1.8296 -1.0630  1.0310
 1765SOL     OW 6735   4.706   1.714   9.472  0.7261  0.2460  0.3683
 1765SOL    HW1 6736   4.622   1.759   9.482  0.5496 -0.3447  1.6514
 1765SOL    HW2 6737   4.744   1.753   9.393 -0.5363  0.8527  0.0339
 1766SOL     OW 6738   7.623   3.144   0.891  0.1312  0.0132 -0.1399
 1766SOL    HW1 6739   7.709   3.136   0.849  1.3586 -0.8906  2.2989
 1766SOL    HW2 6740   7.615   3.064   0.944 -1.4239  0.8831  1.0364
 1767SOL     OW 6741   1.345   6.814   8.951 -0.9118  0.4842 -0.4957
 1767SOL    HW1 6742   1.257   6.846   8.932 -0.4485  2.0317 -0.1714
 1767SOL    HW2 6743   1.374   6.866   9.026  0.0513 -0.4257 -0.2153
 1768SOL     OW 6744   7.691   0.592  10.920  0.3622 -0.2474  0.0934
 1768SOL    HW1 6745   7.626   0.590  10.990  0.0900  2.3158 -0.0032
 1768SOL    HW2 6746   7.653   0.649  10.853  1.3112 -1.3495 -1.4787
 1769SOL     OW 6747   0.756   1.653   0.435  0.2984 -0.4684  0.0403
 1769SOL    HW1 6748   0.821   1.710   0.394  1.8043 -0.9211  1.6827
 1769SOL    HW2 6749   0.807   1.590   0.486 -1.3669 -2.1823 -0.2649
 1770SOL     OW 6750   7.890   2.507   7.610  0.0667  0.0941  0.4530
 1770SOL    HW1 6751   7.802   2.527   7.643  0.0745  0.0602  0.4955
 1770SOL    HW2 6752   7.949   2.552   7.670  0.0307  2.2086 -1.0051
 1771SOL     OW 6753   3.896   5.012   4.703  0.2271  0.7298 -0.1860
 1771SOL    HW1 6754   3.966   5.057   4.654  2.4254 -1.0380  1.1578
 1771SOL    HW2 6755   3.942   4.958   4.766 -2.4319 -0.2817  1.0176
 1772SOL     OW 6756   3.662   7.699  10.998  0.2332 -0.5370 -0.0615
 1772SOL    HW1 6757   3.653   7.604  11.005 -4.3162 -0.3520 -0.6675
 1772SOL    HW2 6758   3.664   7.717  10.904  1.2007  0.0348  0.0457
 1773SOL     OW 6759   1.516   5.891   0.617  0.1047 -0.0642  0.3970
 1773SOL    HW1 6760   1.452   5.882   0.688  0.7443 -0.5966  0.9181
 1773SOL    HW2 6761   1.490   5.824   0.553 -0.0613 -0.0479  0.4457
 1774SOL     OW 6762   0.119   7.650   6.884 -0.1789  0.3901 -0.0766
 1774SOL    HW1 6763   0.199   7.666   6.934 -0.3628 -0.3649  0.4799
 1774SOL    HW2 6764   0.139   7.573   6.831 -0.1922  0.8248 -0.7168
 1775SOL     OW 6765   0.331   3.349   6.213  0.2772 -0.0608 -0.4282
 1775SOL    HW1 6766   0.347   3.435   6.173 -1.1946  0.3169 -0.2578
 1775SOL    HW2 6767   0.376   3.353   6.297 -1.9821  1.6107  0.8180
 1776SOL     OW 6768   0.998   3.674   6.347  0.5389  0.5305  0.4514
 1776SOL    HW1 6769   1.087   3.709   6.354  0.3005  0.8650  2.2975
 1776SOL    HW2 6770   0.954   3.704   6.427 -1.2654  0.4416 -0.4668
 1777SOL     OW 6771   5.296   5.323   4.754  0.2935 -0.3379 -0.2002
 1777SOL    HW1 6772   5.385   5.346   4.781  0.1614  2.0944 -1.5309
 1777SOL    HW2 6773   5.267   5.259   4.819  1.9329  1.0741  2.0671
 1778SOL     OW 6774   4.656   4.358  11.761 -0.1144 -0.5555  0.6153
 1778SOL    HW1 6775   4.711   4.355  11.839  1.2269  0.1475 -0.2673
 1778SOL    HW2 6776   4.600   4.280  11.768  1.7992 -1.9703  0.9833
 1779SOL     OW 6777   2.446   3.265   6.236  0.3227 -0.0665 -0.2638
 1779SOL    HW1 6778   2.428   3.257   6.330  0.4424  0.3401 -0.2052
 1779SOL    HW2 6779   2.388   3.201   6.195  0.8538 -0.8422  0.1489
 1780SOL     OW 6780   0.128   6.534   5.744  0.0742 -0.4030  0.4765
 1780SOL    HW1 6781   0.148   6.441   5.741 -2.4662 -1.0683  1.3904
 1780SOL    HW2 6782   0.084   6.553   5.661 -0.5533 -0.3579  0.8063
 1781SOL     OW 6783   4.773   3.603   9.829 -0.4822  0.5371 -0.5060
 1781SOL    HW1 6784   4.867   3.594   9.813 -0.5278  0.7094 -0.8990
 1781SOL    HW2 6785   4.767   3.642   9.916 -0.1886  0.5113 -0.4745
 1782SOL     OW 6786   4.279   2.540  11.180  0.1423 -0.2874 -0.5077
 1782SOL    HW1 6787   4.307   2.631  11.172  1.2267 -0.4933  0.7450
 1782SOL    HW2 6788   4.281   2.507  11.090  2.2196  0.2202 -0.7017
 1783SOL     OW 6789   5.607   2.850   6.636  0.1106 -0.4042  0.3633
 1783SOL    HW1 6790   5.623   2.917   6.702  1.0309 -0.7005  0.4638
 1783SOL    HW2 6791   5.601   2.768   6.686  2.6083 -0.8943 -0.0133
 1784SOL     OW 6792   1.667   4.839   3.462  0.2101 -0.6093  0.3834
 1784SOL    HW1 6793   1.653   4.924   3.503  0.8928 -0.5969  0.6122
 1784SOL    HW2 6794   1.606   4.780   3.506 -0.9501 -0.0511 -0.4363
 1785SOL     OW 6795   7.377   6.163   9.629  0.0793  0.0510 -0.6946
 1785SOL    HW1 6796   7.402   6.076   9.597 -2.7819  0.2869 -4.2469
 1785SOL    HW2 6797   7.282   6.157   9.644 -0.3303  2.6429 -1.6597
 1786SOL     OW 6798   1.748   5.012   0.546  0.1852  0.5746  0.6402
 1786SOL    HW1 6799   1.773   4.937   0.493  0.4767  0.4801  0.9120
 1786SOL    HW2 6800   1.761   5.087   0.488  0.4395  0.4658  0.5562
 1787SOL     OW 6801   7.874   2.474   0.266  0.3382  0.4214  0.2696
 1787SOL    HW1 6802   7.931   2.493   0.192  0.0629 -0.2220 -0.1215
 1787SOL    HW2 6803   7.797   2.529   0.251  0.9990  1.5916  1.0108
 1788SOL     OW 6804   2.616   7.096  11.666 -0.3526 -0.1771 -0.3629
 1788SOL    HW1 6805   2.693   7.123  11.616  1.0128  2.3054  2.7296
 1788SOL    HW2 6806   2.651   7.033  11.730 -1.1461 -0.0151  0.2380
 1789SOL     OW 6807   5.189   3.513   7.129 -0.2224  0.0233 -0.2118
 1789SOL    HW1 6808   5.267   3.504   7.183  0.4679  0.1857 -1.1586
 1789SOL    HW2 6809   5.213   3.577   7.062 -0.6109 -1.1041 -1.4686
 1790SOL     OW 6810   3.947   1.393   4.827  0.2241 -0.1637 -0.0852
 1790SOL    HW1 6811   3.906   1.478   4.841  1.0830  0.0219  1.5978
 1790SOL    HW2 6812   4.040   1.408   4.843  0.3858 -1.4196  0.2941
 1791SOL     OW 6813   4.538   3.483   5.268 -0.2768  0.0320  0.1735
 1791SOL    HW1 6814   4.454   3.521   5.243  0.7242  0.4173 -2.9269
 1791SOL    HW2 6815   4.603   3.534   5.220  1.7081 -0.7688  1.8645
 1792SOL     OW 6816   4.474   6.879   7.532 -0.5015  0.2860 -0.4121
 1792SOL    HW1 6817   4.408   6.877   7.462 -0.1503 -1.9824 -0.7356
 1792SOL    HW2 6818   4.426   6.853   7.611 -0.5018  1.1175 -0.1197
 1793SOL     OW 6819   2.636   4.977   6.579 -0.0500 -0.3156 -0.4128
 1793SOL    HW1 6820   2.638   5.070   6.603  3.2533 -0.0012 -1.4876
 1793SOL    HW2 6821   2.645   4.977   6.484  1.1409 -1.7579 -0.3227
 1794SOL     OW 6822   0.449   2.629   8.975  0.6977 -0.1710  0.3154
 1794SOL    HW1 6823   0.364   2.586   8.965  0.6047  0.0172  0.3012
 1794SOL    HW2 6824   0.437   2.691   9.046  0.3632  0.9992 -0.7325
 1795SOL     OW 6825   3.447   1.485   5.267  0.3307  0.6219 -0.2062
 1795SOL    HW1 6826   3.498   1.411   5.235  1.7176  1.4875 -0.1332
 1795SOL    HW2 6827   3.460   1.484   5.362  0.8116  1.2531 -0.2562
 1796SOL     OW 6828   0.885   3.380   3.876 -0.3592  0.2682 -0.1682
 1796SOL    HW1 6829   0.816   3.418   3.821 -0.3832 -0.4664 -0.6566
 1796SOL    HW2 6830   0.964   3.383   3.821 -0.5336 -1.1097 -0.5220
 1797SOL     OW 6831   6.766   0.587   1.640 -0.4315 -0.0535 -0.2689
 1797SOL    HW1 6832   6.810   0.669   1.662  0.0315 -0.2487 -0.4512
 1797SOL    HW2 6833   6.827   0.542   1.582 -0.9049 -0.2995 -0.5861
 1798SOL     OW 6834   2.926   1.489  11.722  0.2097  0.1881 -0.7161
 1798SOL    HW1 6835   2.869   1.451  11.789  0.2494  3.7539  1.6008
 1798SOL    HW2 6836   3.008   1.506  11.768  1.1212  0.4652 -2.3997
 1799SOL     OW 6837   3.406   4.891   1.377 -0.1011  0.0860 -0.2602
 1799SOL    HW1 6838   3.378   4.811   1.333  0.7971 -0.2460 -0.2394
 1799SOL    HW2 6839   3.372   4.883   1.466  0.4260 -0.5238 -0.1053
 1800SOL     OW 6840   5.884   0.452   9.641 -0.6707  0.2381  0.0168
 1800SOL    HW1 6841   5.853   0.361   9.643 -0.4422  0.1046 -1.2092
 1800SOL    HW2 6842   5.917   0.469   9.729  0.2985 -1.2405 -0.0169
 1801SOL     OW 6843   2.599   0.022   9.422 -0.2257 -0.0366  0.4779
 1801SOL    HW1 6844   2.665   0.047   9.358  1.3888 -1.0948  1.6337
 1801SOL    HW2 6845   2.642   0.035   9.507 -1.3411 -1.1498  1.2590
 1802SOL     OW 6846   5.948   7.115   8.323 -0.4053 -0.0603  0.2559
 1802SOL    HW1 6847   5.895   7.050   8.371  0.2434 -0.6662  0.1665
 1802SOL    HW2 6848   6.038   7.091   8.342 -0.1430  0.1460 -0.6776
 1803SOL     OW 6849   4.718   0.178  10.108 -0.4159 -0.2850 -0.2127
 1803SOL    HW1 6850   4.665   0.212  10.180  0.5197  2.3942 -0.6517
 1803SOL    HW2 6851   4.804   0.161  10.148 -0.1735  0.2967 -0.4659
 1804SOL     OW 6852   4.329   3.122   9.648 -0.4069 -0.2684  0.1297
 1804SOL    HW1 6853   4.268   3.195   9.656  0.9595  0.8931  0.4031
 1804SOL    HW2 6854   4.334   3.086   9.737  1.3293  1.3872  0.7694
 1805SOL     OW 6855   2.684   3.102   8.540 -0.5534 -0.2690  0.1706
 1805SOL    HW1 6856   2.629   3.115   8.618 -1.1104 -1.5534  0.0184
 1805SOL    HW2 6857   2.739   3.027   8.563  0.3552  0.2933 -0.1180
 1806SOL     OW 6858   1.914   2.886   1.817  0.3252  0.1174 -0.8097
 1806SOL    HW1 6859   1.989   2.929   1.775  0.3849 -0.3062 -1.1529
 1806SOL    HW2 6860   1.914   2.798   1.780 -0.9031  0.3941 -1.5032
 1807SOL     OW 6861   3.360   6.342   9.995  0.0408  0.2245 -0.2983
 1807SOL    HW1 6862   3.302   6.409   9.961  0.2536 -0.2190 -1.6142
 1807SOL    HW2 6863   3.307   6.293  10.058 -0.5460  0.7473 -0.3799
 1808SOL     OW 6864   3.775   7.859  10.241  0.3203  0.1600 -0.1983
 1808SOL    HW1 6865   3.849   7.802  10.260  0.0273 -0.6933 -1.4740
 1808SOL    HW2 6866   3.736   7.878  10.326  1.2558 -0.4101  0.3712
 1809SOL     OW 6867   2.501   7.230   2.418 -0.1036  0.5884  0.1346
 1809SOL    HW1 6868   2.492   7.135   2.410 -0.4257  0.7396 -1.7908
 1809SOL    HW2 6869   2.493   7.247   2.511 -1.5991 -1.1321  0.3716
 1810SOL     OW 6870   2.922   4.496   1.474 -0.2824  0.0101  0.1717
 1810SOL    HW1 6871   2.896   4.480   1.383 -0.0842 -0.2316  0.1558
 1810SOL    HW2 6872   2.839   4.509   1.521 -0.3266  2.3390 -0.4293
 1811SOL     OW 6873   5.942   6.479   5.320  0.1036 -0.0350  0.4010
 1811SOL    HW1 6874   5.938   6.526   5.403  2.4763  1.0709 -0.0060
 1811SOL    HW2 6875   5.991   6.538   5.262 -2.0553 -0.4444 -2.0336
 1812SOL     OW 6876   7.598   3.567   7.787 -0.0162 -0.0077  0.0116
 1812SOL    HW1 6877   7.644   3.625   7.727  0.3585  0.0410  0.3424
 1812SOL    HW2 6878   7.649   3.571   7.868  0.8795 -1.9523 -0.4020
 1813SOL     OW 6879   6.465   0.115  12.210  0.3083 -0.8386 -0.4280
 1813SOL    HW1 6880   6.538   0.160  12.167  1.0065 -0.7094  0.8391
 1813SOL    HW2 6881   6.396   0.182  12.216 -0.2763 -1.2123 -2.4156
 1814SOL     OW 6882   7.534   2.030  12.003 -0.2802  0.2241  0.0481
 1814SOL    HW1 6883   7.488   1.946  11.999 -0.1130  0.1628 -0.5961
 1814SOL    HW2 6884   7.625   2.006  12.019 -0.4390  0.3417  1.2033
 1815SOL     OW 6885   4.757   7.057  11.171 -0.4932 -0.5937  0.0463
 1815SOL    HW1 6886   4.721   7.144  11.154  0.8272  0.0625  0.5344
 1815SOL    HW2 6887   4.785   7.026  11.085 -0.8056 -0.4805 -0.1004
 1816SOL     OW 6888   1.570   2.950   7.105  0.2476 -0.0223  0.1687
 1816SOL    HW1 6889   1.565   2.998   7.022 -0.3061 -0.9796 -0.3619
 1816SOL    HW2 6890   1.615   2.869   7.084 -0.6294 -0.6461  0.6205
 1817SOL     OW 6891   0.200   1.859   9.272 -0.0830 -0.4416  0.2076
 1817SOL    HW1 6892   0.186   1.924   9.340  1.5940 -1.7033  1.8650
 1817SOL    HW2 6893   0.286   1.880   9.235 -0.3710 -0.5999 -0.5902
 1818SOL     OW 6894   2.806   0.357   8.845  0.0474  0.2225  0.4852
 1818SOL    HW1 6895   2.897   0.343   8.819  0.0766 -0.0114  0.7100
 1818SOL    HW2 6896   2.758   0.285   8.804 -0.0382  0.3548  0.3543
 1819SOL     OW 6897   2.477   1.097   9.366 -0.4875  0.2757  0.6040
 1819SOL    HW1 6898   2.443   1.174   9.414  0.6767  0.2393  1.5289
 1819SOL    HW2 6899   2.514   1.134   9.286 -2.9568  0.2817 -0.6380
 1820SOL     OW 6900   2.522   4.829   9.056 -0.2551  0.3724  0.3426
 1820SOL    HW1 6901   2.568   4.774   9.120 -2.0929 -1.3120  0.3254
 1820SOL    HW2 6902   2.590   4.857   8.995  0.8961 -1.3586  0.7504
 1821SOL     OW 6903   3.141   1.648   4.837  0.1625 -0.1383 -0.9251
 1821SOL    HW1 6904   3.210   1.703   4.802  0.9737  0.8726  1.9965
 1821SOL    HW2 6905   3.145   1.660   4.932 -2.8093 -1.5013 -0.4790
 1822SOL     OW 6906   6.340   4.777  11.607  0.1718 -0.3156 -0.1255
 1822SOL    HW1 6907   6.429   4.810  11.592  0.9932 -1.6399  1.4633
 1822SOL    HW2 6908   6.288   4.817  11.538  1.6314  1.9754 -0.0292
 1823SOL     OW 6909   2.858   0.062   6.737  0.0176 -0.1201  0.0878
 1823SOL    HW1 6910   2.833   0.038   6.648 -0.3925 -0.0400  0.1817
 1823SOL    HW2 6911   2.880  -0.022   6.778 -1.5595 -0.3794  0.4592
 1824SOL     OW 6912   5.587   7.140   3.478  0.2862 -0.0675 -0.0433
 1824SOL    HW1 6913   5.628   7.175   3.557  0.1984  0.8892 -0.4005
 1824SOL    HW2 6914   5.621   7.051   3.470  0.6424 -0.0204  0.8176
 1825SOL     OW 6915   6.186   1.123   0.863  0.2481 -0.7015  0.2134
 1825SOL    HW1 6916   6.254   1.077   0.913  2.0699  0.5340 -1.0222
 1825SOL    HW2 6917   6.169   1.065   0.788 -0.0810 -1.0123  0.5236
 1826SOL     OW 6918   7.580   2.275   3.324  0.2239 -0.0666 -0.4983
 1826SOL    HW1 6919   7.667   2.236   3.333  0.1980 -0.9174 -3.0977
 1826SOL    HW2 6920   7.519   2.203   3.339 -0.0537  0.4359  0.9054
 1827SOL     OW 6921   7.911   0.181  11.375 -0.3588  0.1238 -0.2528
 1827SOL    HW1 6922   7.826   0.149  11.406 -0.2976  0.7243  0.5579
 1827SOL    HW2 6923   7.922   0.139  11.289 -2.0390  0.9615 -0.9317
 1828SOL     OW 6924   7.715   3.070   4.483 -0.0160 -0.3493 -0.3709
 1828SOL    HW1 6925   7.726   2.976   4.468 -0.3494 -0.6892  1.2606
 1828SOL    HW2 6926   7.625   3.088   4.459  0.1155 -0.3832 -0.9105
 1829SOL     OW 6927   1.814   5.832  12.373  0.1812 -0.2905  0.2735
 1829SOL    HW1 6928   1.782   5.904  12.427 -0.3464 -0.7094  0.5320
 1829SOL    HW2 6929   1.748   5.822  12.304  0.5969 -0.0877 -0.1604
 1830SOL     OW 6930   4.727   2.531   6.902 -0.0423  0.2360 -0.3841
 1830SOL    HW1 6931   4.755   2.556   6.990  0.9532  0.1555 -0.6659
 1830SOL    HW2 6932   4.636   2.505   6.912  0.0805  0.1669  0.6377
 1831SOL     OW 6933   0.806   1.670  10.121  0.2387 -0.1000  0.2760
 1831SOL    HW1 6934   0.838   1.743  10.173  0.3137 -0.6307  0.9888
 1831SOL    HW2 6935   0.713   1.664  10.141  0.4502 -0.8880  1.0864
 1832SOL     OW 6936   3.033   5.085   1.181  0.3310 -0.1863  0.3959
 1832SOL    HW1 6937   3.073   5.036   1.109 -0.8015 -0.8083  0.1691
 1832SOL    HW2 6938   3.072   5.046   1.260  1.0515  0.0235  0.1520
 1833SOL     OW 6939   4.906   5.414  12.008  0.0083 -0.3912 -0.1989
 1833SOL    HW1 6940   4.905   5.367  11.924 -0.7223  0.1794 -0.5228
 1833SOL    HW2 6941   4.998   5.441  12.018  0.1982 -0.8694 -0.5857
 1834SOL     OW 6942   4.256   1.964   2.788 -0.0327 -1.0294 -0.0546
 1834SOL    HW1 6943   4.345   1.938   2.762  0.2219  0.4627 -0.7892
 1834SOL    HW2 6944   4.249   2.055   2.761 -1.6302 -0.9700  0.4584
 1835SOL     OW 6945   0.410   0.536   0.885 -0.3949 -0.3271  0.1732
 1835SOL    HW1 6946   0.456   0.484   0.819  2.0252  1.2863  0.4485
 1835SOL    HW2 6947   0.419   0.485   0.966 -0.4689 -0.7642 -0.0886
 1836SOL     OW 6948   1.737   3.236  11.855 -0.1672 -0.1325  0.3288
 1836SOL    HW1 6949   1.754   3.238  11.949 -1.6079 -0.9629  0.6410
 1836SOL    HW2 6950   1.814   3.193  11.818 -0.9278 -2.7937  1.5504
 1837SOL     OW 6951   7.649   2.202   6.791  0.0037  0.1388 -0.0373
 1837SOL    HW1 6952   7.633   2.258   6.867 -2.2718 -1.0690  0.4702
 1837SOL    HW2 6953   7.599   2.243   6.720  1.2302  0.6560 -0.6327
 1838SOL     OW 6954   2.702   0.206   3.052 -0.6508  0.4390  0.4261
 1838SOL    HW1 6955   2.701   0.288   3.102  0.0247  0.6550  0.1092
 1838SOL    HW2 6956   2.638   0.220   2.982 -1.5459  0.1616  1.1853
 1839SOL     OW 6957   5.447   2.656   4.194 -0.1072 -0.0257 -0.7407
 1839SOL    HW1 6958   5.369   2.661   4.249 -0.1924 -2.9666 -0.4772
 1839SOL    HW2 6959   5.416   2.617   4.112  1.0916 -1.5123 -0.5261
 1840SOL     OW 6960   5.634   0.760   8.700  0.3711  0.2672  0.0121
 1840SOL    HW1 6961   5.729   0.756   8.686  0.2180  2.8430 -2.6229
 1840SOL    HW2 6962   5.623   0.828   8.766  0.3332 -0.8747  1.2349
 1841SOL     OW 6963   3.541   2.574   2.458 -0.1627  0.1206 -0.2782
 1841SOL    HW1 6964   3.591   2.619   2.390 -1.4732  0.3430 -1.1289
 1841SOL    HW2 6965   3.552   2.629   2.536  1.3274 -0.1222 -0.2711
 1842SOL     OW 6966   1.611   2.056   3.819  0.8697  0.3832  0.4940
 1842SOL    HW1 6967   1.541   2.036   3.881  1.6906 -2.1512  0.6924
 1842SOL    HW2 6968   1.565   2.093   3.743 -0.6763 -0.8848  0.7543
 1843SOL     OW 6969   1.599   0.077   1.711 -0.9571 -0.2567 -0.4951
 1843SOL    HW1 6970   1.567   0.152   1.762 -2.0404 -0.1503 -1.2909
 1843SOL    HW2 6971   1.689   0.065   1.741 -1.7655 -0.6994  1.9874
 1844SOL     OW 6972   4.838   2.848   3.679 -0.0352  0.4441 -0.3921
 1844SOL    HW1 6973   4.872   2.778   3.735 -1.1323  0.1798 -0.0430
 1844SOL    HW2 6974   4.764   2.808   3.633 -0.5979  1.3376 -0.2869
 1845SOL     OW 6975   2.361   2.076   3.589  0.1856 -0.6155  0.4624
 1845SOL    HW1 6976   2.323   2.001   3.635 -1.8885 -0.0201 -0.1307
 1845SOL    HW2 6977   2.437   2.041   3.544 -1.5840 -2.8037 -1.0685
 1846SOL     OW 6978   1.413   7.323   7.298 -0.1970 -0.4163  0.4106
 1846SOL    HW1 6979   1.460   7.378   7.361  0.4277  0.3508 -0.6917
 1846SOL    HW2 6980   1.355   7.269   7.352 -0.0462  0.5692  1.6015
 1847SOL     OW 6981   0.350   5.208   3.059 -0.3458 -0.3657 -0.3176
 1847SOL    HW1 6982   0.345   5.134   2.999  0.3075  0.3482 -1.2851
 1847SOL    HW2 6983   0.432   5.195   3.107  0.7079  0.6134 -1.7518
 1848SOL     OW 6984   0.807   0.667  10.686  0.0965 -0.3538 -0.5038
 1848SOL    HW1 6985   0.785   0.647  10.777  1.5939  0.8693  0.1589
 1848SOL    HW2 6986   0.789   0.760  10.676 -2.3829 -0.9016 -2.2234
 1849SOL     OW 6987   0.310   3.819   1.195  0.4538 -0.2489 -0.4061
 1849SOL    HW1 6988   0.297   3.859   1.109 -0.1760  0.4161 -0.0107
 1849SOL    HW2 6989   0.333   3.892   1.252  1.5220 -0.7714 -0.1250
 1850SOL     OW 6990   0.305   0.838   6.487  0.2272  0.1260 -0.0100
 1850SOL    HW1 6991   0.312   0.749   6.451  1.7646  0.0097  0.5263
 1850SOL    HW2 6992   0.321   0.827   6.580  0.6033  0.9887  0.0299
 1851SOL     OW 6993   7.300   1.321   5.002  0.2727 -0.2470 -0.1849
 1851SOL    HW1 6994   7.220   1.285   5.038  0.2799 -0.1434 -0.0651
 1851SOL    HW2 6995   7.330   1.256   4.939  0.3478 -0.5014  0.1133
 1852SOL     OW 6996   0.452   3.424   4.979  0.4994 -0.1317 -0.0771
 1852SOL    HW1 6997   0.500   3.358   5.029  0.4321 -0.1339 -0.0153
 1852SOL    HW2 6998   0.422   3.377   4.901  2.1796  0.3159 -1.0524
 1853SOL     OW 6999   0.517   2.111   7.697  0.1391  0.1352  0.0415
 1853SOL    HW1 7000   0.570   2.180   7.737 -0.9055  0.9114  0.1479
 1853SOL    HW2 7001   0.569   2.032   7.707  0.7834  0.6660  1.1520
 1854SOL     OW 7002   1.214   3.229   0.440 -0.0013 -0.3992 -0.1050
 1854SOL    HW1 7003   1.249   3.304   0.488 -0.3683 -0.3013  0.0156
 1854SOL    HW2 7004   1.123   3.222   0.469 -0.1115 -0.5897 -0.4841
 1855SOL     OW 7005   5.873   6.186  10.247 -0.4782 -0.0233  0.3462
 1855SOL    HW1 7006   5.957   6.162  10.287  0.2302 -1.4455 -1.7987
 1855SOL    HW2 7007   5.808   6.169  10.315  0.5434 -3.2801  0.6712
 1856SOL     OW 7008   1.864   4.492   7.758  0.1847  0.0384  0.0965
 1856SOL    HW1 7009   1.824   4.405   7.757 -0.1603  0.1695  0.9586
 1856SOL    HW2 7010   1.806   4.543   7.814  0.2572  0.8900 -0.5932
 1857SOL     OW 7011   4.460   2.430   0.863 -0.2792 -0.1514  0.0287
 1857SOL    HW1 7012   4.428   2.460   0.778 -2.8477  0.2060  1.0335
 1857SOL    HW2 7013   4.509   2.350   0.843 -2.5956 -1.2721 -1.6455
 1858SOL     OW 7014   4.166   5.184   4.358  0.2540 -0.1965 -0.0797
 1858SOL    HW1 7015   4.176   5.091   4.334  2.7839 -0.6733  2.3231
 1858SOL    HW2 7016   4.140   5.182   4.450 -0.2924  1.5134 -0.1754
 1859SOL     OW 7017   6.150   4.844   4.411 -0.6789 -0.2764 -0.4898
 1859SOL    HW1 7018   6.114   4.770   4.363  0.2324 -0.9780 -0.1390
 1859SOL    HW2 7019   6.103   4.920   4.378 -0.6071 -0.8308 -1.9201
 1860SOL     OW 7020   1.510   1.624   7.045  0.3079 -0.2218 -0.4341
 1860SOL    HW1 7021   1.571   1.570   7.096 -0.5732 -0.6905  0.1544
 1860SOL    HW2 7022   1.429   1.622   7.096  0.2040  1.5360 -0.4779
 1861SOL     OW 7023   7.176   0.972   9.710 -0.3260 -0.5153  0.0022
 1861SOL    HW1 7024   7.217   0.938   9.631  0.2590 -0.7726  0.4142
 1861SOL    HW2 7025   7.206   1.063   9.716  0.0125 -0.6399  0.1891
 1862SOL     OW 7026   1.568   0.321   6.290  0.0592 -0.0958  0.0143
 1862SOL    HW1 7027   1.573   0.236   6.334 -0.1503  0.4289  1.0782
 1862SOL    HW2 7028   1.474   0.341   6.289  0.0098 -0.2864 -1.0766
 1863SOL     OW 7029   6.051   4.161   1.172 -0.3443  0.1247  0.6678
 1863SOL    HW1 7030   5.999   4.240   1.154  0.1349  0.1538 -0.7503
 1863SOL    HW2 7031   6.025   4.100   1.102  0.9081 -0.1579  0.4342
 1864SOL     OW 7032   0.214   0.295   2.534 -0.4205  0.4634 -0.3467
 1864SOL    HW1 7033   0.199   0.390   2.534  0.0170  0.5329 -0.3203
 1864SOL    HW2 7034   0.306   0.285   2.512 -0.1995  0.0799  0.6909
 1865SOL     OW 7035   4.040   2.659   3.400  0.4704  0.0803 -0.0617
 1865SOL    HW1 7036   3.990   2.702   3.331 -0.1852 -0.4299  0.0849
 1865SOL    HW2 7037   4.071   2.578   3.360 -0.9002 -0.7946  0.5620
 1866SOL     OW 7038   6.975   3.835   9.163  0.1035 -0.3138 -0.1305
 1866SOL    HW1 7039   7.017   3.813   9.080  0.1245  0.0154 -0.2087
 1866SOL    HW2 7040   6.895   3.782   9.164 -0.9240  1.1013 -1.2851
 1867SOL     OW 7041   0.208   4.783   9.283 -1.1259  0.3262  0.3058
 1867SOL    HW1 7042   0.261   4.828   9.217  0.7347  1.1822  2.2727
 1867SOL    HW2 7043   0.151   4.852   9.319 -1.0213  0.2322  0.6543
 1868SOL     OW 7044   1.900   0.312   8.270  0.2176  0.2069  0.1530
 1868SOL    HW1 7045   1.825   0.253   8.261  1.8706 -2.0168  0.1514
 1868SOL    HW2 7046   1.897   0.340   8.362 -0.1841 -0.4692  0.3542
 1869SOL     OW 7047   0.164   3.378   5.530 -0.0913 -0.0982  0.7939
 1869SOL    HW1 7048   0.084   3.329   5.512 -0.5453  0.9060 -0.0357
 1869SOL    HW2 7049   0.139   3.442   5.596  0.5187 -1.0048  1.9356
 1870SOL     OW 7050   3.556   6.937   3.775 -0.0440 -0.4403 -0.2285
 1870SOL    HW1 7051   3.605   6.930   3.857  0.9784  0.4430 -0.7380
 1870SOL    HW2 7052   3.504   7.017   3.786 -1.6101 -1.4910  0.4009
 1871SOL     OW 7053   7.013   0.599   9.897  0.0886  0.4742  0.1879
 1871SOL    HW1 7054   7.107   0.577   9.902 -0.0781 -1.5014 -2.8379
 1871SOL    HW2 7055   6.997   0.615   9.804 -3.0814 -2.1137  0.0999
 1872SOL     OW 7056   0.490   2.041   2.542  0.6054  0.7701 -0.2423
 1872SOL    HW1 7057   0.466   1.999   2.624  0.1774 -1.8881 -1.6092
 1872SOL    HW2 7058   0.427   2.113   2.532 -1.8959 -1.2400 -0.0200
 1873SOL     OW 7059   4.090   3.032   7.909  0.5125  0.1053 -0.2520
 1873SOL    HW1 7060   4.118   3.105   7.963  2.1432 -0.9635  0.4280
 1873SOL    HW2 7061   3.995   3.028   7.920  0.7011  0.4603  1.8331
 1874SOL     OW 7062   2.339   0.572   4.309  0.3787 -0.0637  0.3469
 1874SOL    HW1 7063   2.422   0.620   4.306 -1.1184  2.7915  1.9617
 1874SOL    HW2 7064   2.289   0.606   4.235  0.1235 -0.8216  0.1612
 1875SOL     OW 7065   5.071   3.412   4.299  0.1381  0.4461 -0.2119
 1875SOL    HW1 7066   5.108   3.328   4.270  0.4309  0.4930  0.0266
 1875SOL    HW2 7067   5.033   3.450   4.220  2.3537  1.3227 -0.9170
 1876SOL     OW 7068   4.752   7.355  10.776  0.3746 -0.0774 -0.8608
 1876SOL    HW1 7069   4.687   7.384  10.711  1.7823  0.2090 -2.2031
 1876SOL    HW2 7070   4.835   7.354  10.728  1.6029  0.8162  1.1069
 1877SOL     OW 7071   3.022   2.200   0.917 -0.4895 -0.2732  0.0269
 1877SOL    HW1 7072   3.084   2.164   0.980  1.6221  0.2034 -1.6540
 1877SOL    HW2 7073   2.939   2.158   0.939  0.8876 -2.7700  0.9248
 1878SOL     OW 7074   2.640   1.315   7.301 -0.0403  0.1004 -0.6165
 1878SOL    HW1 7075   2.694   1.242   7.270  0.3025  0.3651 -0.6540
 1878SOL    HW2 7076   2.605   1.284   7.385  0.5130  0.0803 -0.3870
 1879SOL     OW 7077   1.896   7.377   6.457  0.3195 -0.2996  0.6607
 1879SOL    HW1 7078   1.947   7.454   6.482  0.2809 -0.5836  1.6626
 1879SOL    HW2 7079   1.866   7.396   6.368  0.9259  0.5171  0.6178
 1880SOL     OW 7080   0.162   2.998   9.191 -0.0798 -0.1011 -0.4853
 1880SOL    HW1 7081   0.140   2.943   9.116 -0.0401  1.6618 -1.8532
 1880SOL    HW2 7082   0.078   3.012   9.236 -0.2248 -0.6070 -0.5948
 1881SOL     OW 7083   7.186   4.441   5.493 -0.3158 -0.0277 -0.1239
 1881SOL    HW1 7084   7.185   4.493   5.573  2.0905  0.2414 -0.2139
 1881SOL    HW2 7085   7.114   4.477   5.441 -0.3809  1.4308  0.9083
 1882SOL     OW 7086   6.179   1.398   7.867 -0.2642 -0.8713  0.0758
 1882SOL    HW1 7087   6.265   1.413   7.907  1.0734  0.7170 -3.0432
 1882SOL    HW2 7088   6.138   1.484   7.867 -1.0954 -1.2608 -0.0926
 1883SOL     OW 7089   5.690   3.032   6.825  0.2754 -0.3480 -0.2845
 1883SOL    HW1 7090   5.672   3.030   6.919  1.2310  0.8349 -0.0633
 1883SOL    HW2 7091   5.780   3.000   6.816  0.1904 -0.4630 -0.8110
 1884SOL     OW 7092   6.037   3.257  10.813  0.0192  0.6958 -0.3661
 1884SOL    HW1 7093   6.013   3.183  10.757 -0.7539  1.5919 -1.2656
 1884SOL    HW2 7094   6.118   3.229  10.855 -0.2570 -0.6602 -0.6723
 1885SOL     OW 7095   7.303   2.885   6.491 -0.1016  0.2721 -0.7514
 1885SOL    HW1 7096   7.322   2.884   6.585  0.8402 -0.4180 -0.9289
 1885SOL    HW2 7097   7.231   2.823   6.480 -0.7192  0.9116 -0.4009
 1886SOL     OW 7098   5.516   2.067  10.719 -0.1960 -0.2285  0.0075
 1886SOL    HW1 7099   5.443   2.051  10.778 -1.3976  1.2210 -1.0191
 1886SOL    HW2 7100   5.592   2.077  10.776 -1.0821 -0.1914  1.1985
 1887SOL     OW 7101   5.174   4.782   5.964 -0.2539  0.0767  0.1786
 1887SOL    HW1 7102   5.226   4.702   5.966 -0.3576  0.0146  0.3882
 1887SOL    HW2 7103   5.099   4.759   5.907 -0.9735 -0.4035  1.2824
 1888SOL     OW 7104   5.456   7.689  10.467  0.0993 -0.0491 -0.6320
 1888SOL    HW1 7105   5.531   7.746  10.450 -0.1842  0.1080 -1.4005
 1888SOL    HW2 7106   5.379   7.744  10.450 -0.2196  0.0420  0.9451
 1889SOL     OW 7107   1.491   2.859  11.595  0.3205  0.2787 -0.3764
 1889SOL    HW1 7108   1.518   2.804  11.669 -0.9866  2.0571  1.5430
 1889SOL    HW2 7109   1.572   2.876  11.547  1.4076 -0.1455  1.2216
 1890SOL     OW 7110   6.599   1.726   6.781  0.1690 -0.2197 -0.6536
 1890SOL    HW1 7111   6.540   1.729   6.705 -2.8915 -0.0751  1.5232
 1890SOL    HW2 7112   6.601   1.815   6.814  0.0377 -0.5755  0.3661
 1891SOL     OW 7113   7.249   7.297   0.922  0.5238  0.8038 -0.1475
 1891SOL    HW1 7114   7.334   7.256   0.939 -0.1120 -0.8070 -0.5932
 1891SOL    HW2 7115   7.207   7.238   0.860 -0.9990  1.4578  0.2206
 1892SOL     OW 7116   1.537   4.631   7.541 -0.2082  0.7347  0.2713
 1892SOL    HW1 7117   1.568   4.720   7.557 -2.0019  1.4729 -0.1647
 1892SOL    HW2 7118   1.539   4.622   7.446  2.1638 -0.5703  0.3609
 1893SOL     OW 7119   4.675   6.501  12.219 -0.3431 -0.5204 -0.1032
 1893SOL    HW1 7120   4.649   6.576  12.273 -0.9335 -1.2880  0.7168
 1893SOL    HW2 7121   4.750   6.464  12.266  0.4263 -0.0241 -0.9078
 1894SOL     OW 7122   1.686   7.539   9.196 -0.3357  0.2470 -0.2159
 1894SOL    HW1 7123   1.758   7.488   9.233  0.0144  0.9895  0.1670
 1894SOL    HW2 7124   1.610   7.481   9.199  0.1067 -0.3236 -0.0173
 1895SOL     OW 7125   3.877   2.299   7.404  0.2765  0.0724 -0.0178
 1895SOL    HW1 7126   3.874   2.342   7.490 -0.3798  0.9633 -0.4669
 1895SOL    HW2 7127   3.907   2.211   7.423 -1.5680 -0.3336  1.3842
 1896SOL     OW 7128   1.322   4.587   6.138 -0.0031  0.2575  0.2242
 1896SOL    HW1 7129   1.228   4.595   6.126 -0.0479  0.4275  0.6818
 1896SOL    HW2 7130   1.335   4.585   6.233  0.5005  0.8952  0.1814
 1897SOL     OW 7131   2.827   3.677   8.163  0.0060 -0.4677  0.0619
 1897SOL    HW1 7132   2.797   3.691   8.073 -0.5789 -0.5980  0.2341
 1897SOL    HW2 7133   2.799   3.588   8.183  1.1569 -0.8697 -0.0261
 1898SOL     OW 7134   2.546   1.943   8.806 -0.3561 -0.1132  0.1790
 1898SOL    HW1 7135   2.484   1.945   8.878 -0.3324 -1.6692  0.2732
 1898SOL    HW2 7136   2.630   1.965   8.846 -0.0124 -2.6491  1.0622
 1899SOL     OW 7137   7.849   6.455  11.641 -0.2049 -0.5458 -0.1032
 1899SOL    HW1 7138   7.813   6.401  11.711 -2.5741 -0.8303 -1.4320
 1899SOL    HW2 7139   7.944   6.448  11.652 -0.4515 -0.3992  3.1418
 1900SOL     OW 7140   7.340   7.548   3.788  0.1719  0.0202  0.4889
 1900SOL    HW1 7141   7.414   7.489   3.775  0.7215  1.0105 -1.2890
 1900SOL    HW2 7142   7.346   7.611   3.716 -0.3636  2.3045  2.3079
 1901SOL     OW 7143   6.238   3.367   9.087  0.0772 -0.3714 -0.1612
 1901SOL    HW1 7144   6.289   3.376   9.168 -1.2780  0.2842  0.6495
 1901SOL    HW2 7145   6.159   3.420   9.102 -1.5372 -2.4753 -0.8268
 1902SOL     OW 7146   4.969   2.707   7.111  0.2002  0.2811  0.2559
 1902SOL    HW1 7147   5.009   2.732   7.027 -0.6434  0.3010 -0.1556
 1902SOL    HW2 7148   4.890   2.761   7.116  0.0733  0.0367  0.9096
 1903SOL     OW 7149   2.056   5.663   9.134  0.8622 -0.4993 -0.7006
 1903SOL    HW1 7150   2.064   5.644   9.227 -0.2523 -0.4223 -0.5745
 1903SOL    HW2 7151   2.084   5.754   9.126 -1.3740  0.3265 -0.0030
 1904SOL     OW 7152   6.464   5.385   4.079  0.0386 -0.1301 -0.6035
 1904SOL    HW1 7153   6.456   5.289   4.080 -0.5149 -0.0983  0.9994
 1904SOL    HW2 7154   6.375   5.417   4.064 -0.3316  0.1190  1.7980
 1905SOL     OW 7155   6.603   4.225   5.115 -0.2915  0.7578  0.9948
 1905SOL    HW1 7156   6.658   4.299   5.140  3.0405 -0.5047 -1.7864
 1905SOL    HW2 7157   6.609   4.221   5.020 -0.3587 -2.9535  0.9864
 1906SOL     OW 7158   3.795   6.915   9.200  0.5830 -0.2776  0.4977
 1906SOL    HW1 7159   3.874   6.942   9.152 -0.7123 -1.1206 -2.3188
 1906SOL    HW2 7160   3.791   6.821   9.187 -0.2942 -0.4086  1.6239
 1907SOL     OW 7161   3.072   2.647   5.293  0.2443 -0.4678 -0.1155
 1907SOL    HW1 7162   2.994   2.619   5.342  0.0075 -0.0083 -0.2257
 1907SOL    HW2 7163   3.124   2.696   5.357  0.3262 -0.5646 -0.1078
 1908SOL     OW 7164   6.894   1.122  11.803  0.1027  0.2486  0.8169
 1908SOL    HW1 7165   6.928   1.033  11.797  1.2998  0.7433 -0.0874
 1908SOL    HW2 7166   6.803   1.110  11.831 -0.2804 -1.3680 -0.9059
 1909SOL     OW 7167   0.169   2.110   9.748 -0.4131  0.2607  0.0073
 1909SOL    HW1 7168   0.123   2.179   9.795 -1.8765 -0.4886 -0.2685
 1909SOL    HW2 7169   0.248   2.095   9.799 -0.1455  2.0016  0.1652
 1910SOL     OW 7170   6.100   4.673   0.304 -0.3215  0.6510  0.0423
 1910SOL    HW1 7171   6.117   4.587   0.267  0.1808  0.2730  1.0944
 1910SOL    HW2 7172   6.054   4.721   0.235 -0.8245 -0.5343 -0.4750
 1911SOL     OW 7173   0.187   2.647   1.347  0.2443  1.0077  0.0265
 1911SOL    HW1 7174   0.237   2.727   1.334  0.1727  1.1952  0.8963
 1911SOL    HW2 7175   0.105   2.676   1.386 -1.5233  0.9794 -3.3008
 1912SOL     OW 7176   4.483   4.135  11.799 -0.1774 -0.1553  0.4626
 1912SOL    HW1 7177   4.494   4.128  11.705  1.7285  0.9913  0.5358
 1912SOL    HW2 7178   4.542   4.070  11.836 -0.0044  0.2195  0.8636
 1913SOL     OW 7179   1.721   1.427   5.556  0.1608  0.2844 -0.2708
 1913SOL    HW1 7180   1.663   1.469   5.493 -1.1044 -0.5508  0.2917
 1913SOL    HW2 7181   1.696   1.466   5.640  0.0504 -0.4469  0.0420
 1914SOL     OW 7182   7.210   0.957  10.910  0.4817 -0.5257 -0.3366
 1914SOL    HW1 7183   7.131   0.986  10.956  0.6431  0.1498 -0.4781
 1914SOL    HW2 7184   7.250   1.038  10.878  0.9376 -0.9113 -0.7443
 1915SOL     OW 7185   4.901   1.766   9.661 -0.1956 -0.6268 -0.4216
 1915SOL    HW1 7186   4.849   1.754   9.581 -1.1695  0.7522 -0.0286
 1915SOL    HW2 7187   4.871   1.850   9.697  0.8873 -0.7747  0.9055
 1916SOL     OW 7188   6.752   3.005   1.457 -0.1005 -0.0206  0.8547
 1916SOL    HW1 7189   6.693   3.064   1.503 -0.8731  2.0717 -2.4787
 1916SOL    HW2 7190   6.694   2.944   1.410  0.6014 -1.2959  1.5972
 1917SOL     OW 7191   1.843   2.985   0.426  0.8834 -0.0055  0.0904
 1917SOL    HW1 7192   1.888   3.068   0.411 -0.9975  1.2230  0.9234
 1917SOL    HW2 7193   1.795   2.997   0.508  0.8772 -2.0779  0.4645
 1918SOL     OW 7194   4.231   6.705   0.308 -0.4699 -0.1231 -0.0964
 1918SOL    HW1 7195   4.263   6.796   0.303  1.2073 -0.6517  0.4296
 1918SOL    HW2 7196   4.138   6.712   0.286 -0.1536  1.5841 -1.1638
 1919SOL     OW 7197   5.576   7.231   7.059 -0.1620 -0.2371  0.0458
 1919SOL    HW1 7198   5.600   7.320   7.084  0.5438 -0.9283  2.1098
 1919SOL    HW2 7199   5.481   7.226   7.072  0.2092 -0.7425  3.7630
 1920SOL     OW 7200   1.772   2.551   9.903  0.4937 -0.9408 -0.0606
 1920SOL    HW1 7201   1.759   2.498   9.981  1.5469  0.6010  1.2343
 1920SOL    HW2 7202   1.685   2.584   9.882  0.2652 -0.9515  0.8140
 1921SOL     OW 7203   3.711   6.952   8.570 -0.2261  0.2412 -0.0420
 1921SOL    HW1 7204   3.620   6.923   8.574  0.2741 -1.2997  1.1401
 1921SOL    HW2 7205   3.751   6.896   8.504 -0.0912  0.7729 -0.4109
 1922SOL     OW 7206   0.435   5.454   9.393 -0.1002 -0.2026 -0.4873
 1922SOL    HW1 7207   0.378   5.391   9.348 -0.1661  1.4241 -2.9060
 1922SOL    HW2 7208   0.489   5.491   9.323  0.7382  1.6025  1.0269
 1923SOL     OW 7209   4.558   6.801   6.944 -0.0286  0.6595 -0.0570
 1923SOL    HW1 7210   4.493   6.772   7.008 -0.1283  1.0351  0.0157
 1923SOL    HW2 7211   4.587   6.887   6.976  0.9186  0.2550  0.2211
 1924SOL     OW 7212   1.593   4.032   9.292 -0.3400  0.5142 -0.1277
 1924SOL    HW1 7213   1.656   4.043   9.364 -1.1969  0.7969  0.5928
 1924SOL    HW2 7214   1.517   4.084   9.319 -0.1874  1.7160 -1.8499
 1925SOL     OW 7215   0.469   0.012  10.247 -0.0538  0.1479 -0.2749
 1925SOL    HW1 7216   0.384  -0.002  10.205  0.4673 -1.0587 -0.9746
 1925SOL    HW2 7217   0.504  -0.077  10.261 -0.0955  0.4659  2.5506
 1926SOL     OW 7218   2.105   0.397   4.284  0.2120  0.3246 -0.1573
 1926SOL    HW1 7219   2.035   0.369   4.226  0.5143 -0.1547 -0.2973
 1926SOL    HW2 7220   2.108   0.492   4.276 -0.7492  0.3936  0.2278
 1927SOL     OW 7221   6.677   1.746   4.803  0.1059  0.1987 -0.0691
 1927SOL    HW1 7222   6.710   1.705   4.883  0.4176 -0.2779 -0.4340
 1927SOL    HW2 7223   6.598   1.792   4.831  0.4615  0.4188  0.5974
 1928SOL     OW 7224   7.468   1.064   3.024  0.0170  0.2403 -0.8162
 1928SOL    HW1 7225   7.458   0.986   3.078  0.2377  1.5908  1.3187
 1928SOL    HW2 7226   7.505   1.033   2.942  0.8948 -1.7789  0.2830
 1929SOL     OW 7227   6.143   2.799  12.305  0.9236 -0.2496  0.5998
 1929SOL    HW1 7228   6.189   2.739  12.247  0.3385 -1.4610  1.3363
 1929SOL    HW2 7229   6.153   2.760  12.392  0.4475  0.6838  1.0913
 1930SOL     OW 7230   0.216   0.137   3.329  0.2593  0.0621  0.2945
 1930SOL    HW1 7231   0.305   0.171   3.337 -0.0770  1.1271 -0.3697
 1930SOL    HW2 7232   0.165   0.189   3.391 -0.6212  2.1801 -2.0186
 1931SOL     OW 7233   2.309   2.969   3.731  0.1539 -0.1441 -0.4674
 1931SOL    HW1 7234   2.278   2.878   3.734 -0.2642  0.0079  0.0964
 1931SOL    HW2 7235   2.229   3.022   3.739  0.3719  0.2780 -1.0373
 1932SOL     OW 7236   4.047   1.397   3.672  0.1023 -0.1969  0.0641
 1932SOL    HW1 7237   4.006   1.446   3.601 -0.4538 -1.3837 -0.4729
 1932SOL    HW2 7238   4.097   1.328   3.628  0.8896 -0.1010  0.7865
 1933SOL     OW 7239   6.449   2.852   4.637 -0.0367 -0.3597  0.0341
 1933SOL    HW1 7240   6.447   2.933   4.586 -1.7910 -0.2397  0.2274
 1933SOL    HW2 7241   6.365   2.851   4.683  0.6174 -1.5239  1.2607
 1934SOL     OW 7242   2.516   7.154  11.224  0.4882 -0.0085 -0.2270
 1934SOL    HW1 7243   2.481   7.099  11.154  0.2056  1.1680 -1.0374
 1934SOL    HW2 7244   2.491   7.109  11.305  2.3963 -2.3531 -0.8486
 1935SOL     OW 7245   5.762   0.693   9.583  0.6510 -0.4380 -0.2472
 1935SOL    HW1 7246   5.825   0.622   9.571 -1.8018 -3.1283  1.6378
 1935SOL    HW2 7247   5.708   0.691   9.504  0.0743 -1.2504  0.1618
 1936SOL     OW 7248   5.049   0.269   9.794 -0.3828 -0.1851  0.1258
 1936SOL    HW1 7249   4.957   0.283   9.818 -0.0780 -0.7654  1.7490
 1936SOL    HW2 7250   5.046   0.199   9.729 -1.1993  1.0171 -1.1873
 1937SOL     OW 7251   3.560   1.812   5.126  0.8026 -0.2710 -0.1807
 1937SOL    HW1 7252   3.532   1.735   5.076  2.1869 -2.6885  2.4880
 1937SOL    HW2 7253   3.646   1.788   5.159  2.1523  3.2725 -0.7632
 1938SOL     OW 7254   2.848   2.539   5.426  0.2582  0.4159 -0.4979
 1938SOL    HW1 7255   2.836   2.448   5.398 -0.1433 -0.0004  0.9732
 1938SOL    HW2 7256   2.837   2.538   5.521 -0.1978  2.0723 -0.4868
 1939SOL     OW 7257   3.207   4.825   1.802  0.4040  0.1630  0.2656
 1939SOL    HW1 7258   3.302   4.838   1.804  0.9753 -2.2939 -2.5874
 1939SOL    HW2 7259   3.197   4.732   1.781 -2.5147  0.9109 -2.4422
 1940SOL     OW 7260   0.622   0.803   4.234 -0.5460 -0.8512 -0.0343
 1940SOL    HW1 7261   0.634   0.708   4.227 -0.8859 -0.9584  0.6855
 1940SOL    HW2 7262   0.530   0.818   4.212 -0.1907 -0.5377 -1.3484
 1941SOL     OW 7263   3.533   0.196   8.449  0.0549 -0.0127  0.3370
 1941SOL    HW1 7264   3.560   0.257   8.518 -0.1955  1.1479 -0.5463
 1941SOL    HW2 7265   3.440   0.182   8.464 -0.0653  0.4801  0.0615
 1942SOL     OW 7266   0.797   2.072   1.895 -0.4197 -0.1312 -0.0231
 1942SOL    HW1 7267   0.791   2.113   1.808 -1.4669  0.6567  0.3935
 1942SOL    HW2 7268   0.734   2.000   1.892 -0.2959 -0.2403  0.0077
 1943SOL     OW 7269   5.321   1.810   8.507  0.0926  0.3371 -0.3183
 1943SOL    HW1 7270   5.250   1.863   8.471 -0.6230  0.9262  1.7852
 1943SOL    HW2 7271   5.395   1.826   8.449 -0.4117  2.8269 -0.4083
 1944SOL     OW 7272   1.684   6.019   9.598  0.1778  0.1702  0.0002
 1944SOL    HW1 7273   1.618   5.983   9.657 -1.7170 -0.4886 -2.3118
 1944SOL    HW2 7274   1.768   5.988   9.632 -1.0424 -2.8173  0.6118
 1945SOL     OW 7275   2.286   3.532  11.734  0.4871  0.0976  0.2562
 1945SOL    HW1 7276   2.320   3.593  11.669  0.7735  0.4855  0.7669
 1945SOL    HW2 7277   2.194   3.520  11.710 -0.3775  2.8981  1.7389
 1946SOL     OW 7278   1.367   3.096   6.189 -0.5297  0.2973  0.0875
 1946SOL    HW1 7279   1.316   3.115   6.110 -0.9751 -0.1882  0.2521
 1946SOL    HW2 7280   1.358   3.174   6.244 -0.4190  0.5388 -0.2368
 1947SOL     OW 7281   6.192   2.218   5.676 -0.2371  0.5207  0.3276
 1947SOL    HW1 7282   6.125   2.171   5.726 -0.4829  0.2304 -0.2749
 1947SOL    HW2 7283   6.149   2.245   5.596  0.2926  0.5818  0.0577
 1948SOL     OW 7284   3.955   4.496   6.172  0.0727 -0.4410 -0.5132
 1948SOL    HW1 7285   4.040   4.469   6.208  0.5365  1.9165  0.3336
 1948SOL    HW2 7286   3.972   4.581   6.133 -1.7511 -0.3078 -1.0894
 1949SOL     OW 7287   5.860   7.421   1.965  0.1511  0.3844  0.3420
 1949SOL    HW1 7288   5.931   7.371   1.925  0.2576  0.7074  0.1226
 1949SOL    HW2 7289   5.848   7.381   2.051 -2.6234 -2.7828 -1.3239
 1950SOL     OW 7290   3.746   2.327   3.741  0.0443 -0.4865 -0.1279
 1950SOL    HW1 7291   3.763   2.418   3.719  1.0208 -0.2506  1.4745
 1950SOL    HW2 7292   3.655   2.312   3.716  0.1101  0.6792 -1.1362
 1951SOL     OW 7293   7.268   2.407   4.570 -0.4138  0.1066 -0.6219
 1951SOL    HW1 7294   7.185   2.455   4.574  0.1753  1.0557  1.4513
 1951SOL    HW2 7295   7.245   2.322   4.531 -1.9366  1.0990 -2.0371
 1952SOL     OW 7296   7.615   7.706   7.366 -0.0180 -0.9889  0.0702
 1952SOL    HW1 7297   7.581   7.621   7.340 -2.3756  0.2209 -1.1239
 1952SOL    HW2 7298   7.562   7.732   7.441  0.1519 -0.2498 -0.0534
 1953SOL     OW 7299   3.986   2.273  11.032  0.3944 -0.3769 -0.1109
 1953SOL    HW1 7300   4.003   2.295  10.941  1.1857 -0.9000 -0.1038
 1953SOL    HW2 7301   3.899   2.309  11.050 -0.5472 -1.7956 -1.5782
 1954SOL     OW 7302   4.393   5.038   8.634 -0.0845  0.0799 -0.2399
 1954SOL    HW1 7303   4.441   5.013   8.555  1.3778 -0.4604  0.7823
 1954SOL    HW2 7304   4.317   4.980   8.635  0.2481 -0.3791 -0.8906
 1955SOL     OW 7305   5.142   1.895   2.147 -0.5663 -0.2102 -0.2035
 1955SOL    HW1 7306   5.113   1.928   2.232 -0.4384  0.0390 -0.2563
 1955SOL    HW2 7307   5.061   1.874   2.101 -0.6349 -2.2925  0.7280
 1956SOL     OW 7308   3.361   2.676   7.092  0.1624 -0.2837  0.5185
 1956SOL    HW1 7309   3.374   2.612   7.161 -1.9170 -0.3063  0.9659
 1956SOL    HW2 7310   3.266   2.679   7.079  0.1694  2.5497  0.3807
 1957SOL     OW 7311   5.152   0.133  10.152 -0.2337  0.2699  0.1734
 1957SOL    HW1 7312   5.068   0.157  10.192 -0.4884 -1.1720  0.5584
 1957SOL    HW2 7313   5.162   0.040  10.171  0.2958 -0.1656 -1.9695
 1958SOL     OW 7314   4.958   4.788   4.682 -0.0892 -0.0987 -0.6752
 1958SOL    HW1 7315   4.930   4.869   4.723 -1.9741 -1.2411  0.4281
 1958SOL    HW2 7316   4.879   4.753   4.640  0.4167 -1.8151 -0.2994
 1959SOL     OW 7317   4.351   2.237   7.572  0.1127  0.5039 -0.2461
 1959SOL    HW1 7318   4.317   2.249   7.661  0.2282 -0.7106 -0.0321
 1959SOL    HW2 7319   4.428   2.181   7.582  1.3507  2.0069 -0.9016
 1960SOL     OW 7320   4.932   6.131   4.523 -0.9998 -0.2255  0.3816
 1960SOL    HW1 7321   5.015   6.171   4.498 -0.6008 -0.0306  1.9228
 1960SOL    HW2 7322   4.955   6.043   4.554 -1.3793 -0.2344  0.6505
 1961SOL     OW 7323   0.919   7.351   9.603  0.4152 -0.3001  0.6445
 1961SOL    HW1 7324   0.891   7.260   9.602 -0.3266 -0.1266 -1.8227
 1961SOL    HW2 7325   0.849   7.397   9.650 -0.4457 -0.7128 -0.2007
 1962SOL     OW 7326   3.989   6.191  11.237  0.3626  0.4850 -0.4398
 1962SOL    HW1 7327   4.057   6.131  11.206  0.3129  0.4581 -0.4970
 1962SOL    HW2 7328   3.919   6.184  11.172  0.7270  1.2691 -0.9412
 1963SOL     OW 7329   7.872   3.333   8.506  0.1835 -0.1595  0.4601
 1963SOL    HW1 7330   7.854   3.239   8.513  0.1557 -0.0807  1.6311
 1963SOL    HW2 7331   7.941   3.349   8.571  0.5934  0.5339 -0.1295
 1964SOL     OW 7332   1.171   5.900   0.158  0.3674  0.5956 -0.1992
 1964SOL    HW1 7333   1.085   5.934   0.184 -0.1460 -0.1195 -0.9101
 1964SOL    HW2 7334   1.155   5.856   0.075  1.1013 -0.9521  0.4346
 1965SOL     OW 7335   1.170   7.348   0.589  0.1397 -0.0898 -0.4004
 1965SOL    HW1 7336   1.141   7.269   0.545  0.1669 -0.4177  0.1589
 1965SOL    HW2 7337   1.241   7.319   0.646  0.2044  0.3483 -0.2551
 1966SOL     OW 7338   1.984   3.924   2.188 -0.1611 -0.2215  0.1661
 1966SOL    HW1 7339   1.924   3.973   2.244 -0.8001 -1.2874  0.4468
 1966SOL    HW2 7340   2.071   3.949   2.217 -0.4377  1.5448 -0.4132
 1967SOL     OW 7341   6.307   1.556   0.140  0.5854 -0.0494  0.6200
 1967SOL    HW1 7342   6.261   1.612   0.203  0.3370  0.0287  0.3687
 1967SOL    HW2 7343   6.277   1.467   0.161  0.8135 -0.0691  0.8752
 1968SOL     OW 7344   2.391   4.844   7.512 -0.1424 -0.3892  0.6478
 1968SOL    HW1 7345   2.471   4.841   7.461 -0.9566 -1.5100 -0.6191
 1968SOL    HW2 7346   2.416   4.891   7.592  1.6267 -0.2665  0.0740
 1969SOL     OW 7347   6.789   6.970   4.334  0.4189 -0.3101  0.3271
 1969SOL    HW1 7348   6.731   6.937   4.265 -0.2458 -1.9599  1.5961
 1969SOL    HW2 7349   6.877   6.954   4.301  0.1378  0.0700 -0.6490
 1970SOL     OW 7350   6.295   0.034   0.721  0.2094 -0.1458  0.3924
 1970SOL    HW1 7351   6.297   0.055   0.815 -1.4050 -0.7845  0.5875
 1970SOL    HW2 7352   6.374  -0.019   0.707  2.9066  3.4795  0.4410
 1971SOL     OW 7353   6.717   4.170   2.965  0.2400 -0.2040  0.1119
 1971SOL    HW1 7354   6.667   4.247   2.993  2.2704  1.2078 -0.0004
 1971SOL    HW2 7355   6.801   4.177   3.011  0.0790 -3.0281  1.0628
 1972SOL     OW 7356   5.496   2.353   7.905  0.0626  0.0266 -0.4668
 1972SOL    HW1 7357   5.523   2.264   7.879  1.0127 -0.1978  1.1667
 1972SOL    HW2 7358   5.402   2.344   7.924 -0.3945 -0.0652 -2.4945
 1973SOL     OW 7359   5.279   4.422   8.322  0.2768  0.7210  0.5231
 1973SOL    HW1 7360   5.352   4.433   8.260  0.0425 -1.9769 -0.3906
 1973SOL    HW2 7361   5.201   4.421   8.267 -0.0989  0.0191  1.0521
 1974SOL     OW 7362   3.960   4.993   1.405 -0.6677 -0.1294  0.0795
 1974SOL    HW1 7363   4.048   5.005   1.370  0.0017 -1.7564  1.0615
 1974SOL    HW2 7364   3.973   4.941   1.484 -2.3648  1.1927  1.2809
 1975SOL     OW 7365   5.329   5.359  11.692 -0.0583 -0.1688 -1.0094
 1975SOL    HW1 7366   5.390   5.365  11.766 -0.4628 -0.5780 -0.6409
 1975SOL    HW2 7367   5.354   5.432  11.635  0.2943  0.1221 -0.4953
 1976SOL     OW 7368   5.506   1.588   9.842 -0.5439  0.1220 -0.1261
 1976SOL    HW1 7369   5.538   1.499   9.827 -0.6246  0.0943 -0.1344
 1976SOL    HW2 7370   5.568   1.644   9.796 -2.0295 -0.0763 -2.5124
 1977SOL     OW 7371   3.282   2.175   8.893  0.2617  0.2200  0.0460
 1977SOL    HW1 7372   3.275   2.265   8.860  1.0860  0.7299  1.1681
 1977SOL    HW2 7373   3.196   2.137   8.877 -0.0710  1.1777 -0.5533
 1978SOL     OW 7374   0.032   1.540  10.730 -0.5514 -0.2682 -0.5402
 1978SOL    HW1 7375  -0.042   1.581  10.774 -0.8597 -1.5812  0.2253
 1978SOL    HW2 7376  -0.006   1.498  10.653 -0.2348  0.8542 -1.3296
 1979SOL     OW 7377   6.937   4.729   7.867 -0.1612 -0.2268  0.5433
 1979SOL    HW1 7378   6.908   4.638   7.871  0.5601 -0.6271 -1.7248
 1979SOL    HW2 7379   7.033   4.724   7.871 -0.1031  0.3833  0.1000
 1980SOL     OW 7380   6.153   6.970   5.979 -0.4384  0.4226  0.0767
 1980SOL    HW1 7381   6.237   6.925   5.976  0.0889  1.2924  1.1853
 1980SOL    HW2 7382   6.172   7.055   6.018 -1.9957  0.2314  1.3833
 1981SOL     OW 7383   5.675   6.806  10.656  0.3012  0.3784 -0.0872
 1981SOL    HW1 7384   5.769   6.799  10.673  0.6509  1.5798 -1.3380
 1981SOL    HW2 7385   5.670   6.835  10.565 -1.3314 -1.4622 -0.6410
 1982SOL     OW 7386   7.728   0.434  11.835 -0.1975 -0.4157 -0.6739
 1982SOL    HW1 7387   7.685   0.417  11.751 -1.4550 -1.3007  0.1076
 1982SOL    HW2 7388   7.812   0.387  11.829  0.6891  1.2528 -2.1843
 1983SOL     OW 7389   0.723   2.032   4.219  0.1340  0.1520 -0.0523
 1983SOL    HW1 7390   0.720   2.120   4.180 -2.1038  0.5367  0.8622
 1983SOL    HW2 7391   0.744   2.047   4.311  0.6116 -0.3636 -0.0710
 1984SOL     OW 7392   2.934   5.328   1.658  0.4503  0.4980  0.3545
 1984SOL    HW1 7393   2.874   5.337   1.732  0.9553  0.3035  0.7875
 1984SOL    HW2 7394   2.879   5.343   1.581 -0.5346 -1.3377  0.6401
 1985SOL     OW 7395   7.920   6.844   7.207 -0.3773 -0.1705 -0.1044
 1985SOL    HW1 7396   7.942   6.853   7.300  1.3117 -1.0327 -0.3748
 1985SOL    HW2 7397   7.951   6.926   7.168  1.1823 -0.7869 -0.2490
 1986SOL     OW 7398   1.567   5.791   7.280 -0.6709  0.2828  0.0191
 1986SOL    HW1 7399   1.663   5.799   7.283 -0.3983 -1.9640 -0.5300
 1986SOL    HW2 7400   1.547   5.724   7.345 -1.8468  0.5292 -0.0711
 1987SOL     OW 7401   6.053   1.111  12.047  0.1395  0.1937 -0.5574
 1987SOL    HW1 7402   6.141   1.075  12.048  0.8368  1.7558  1.7862
 1987SOL    HW2 7403   5.997   1.035  12.028  1.8341 -1.2488 -0.0682
 1988SOL     OW 7404   4.661   0.254   2.529 -0.8192  0.6770 -0.3516
 1988SOL    HW1 7405   4.694   0.189   2.466 -1.4205  0.0585 -0.0391
 1988SOL    HW2 7406   4.585   0.212   2.569 -0.7834  1.2923  0.3803
 1989SOL     OW 7407   3.351   1.944  11.945  0.0965 -0.1080  0.4248
 1989SOL    HW1 7408   3.278   1.891  11.914 -0.4586 -0.1542  1.7609
 1989SOL    HW2 7409   3.424   1.921  11.886 -1.1849  0.7235 -1.6172
 1990SOL     OW 7410   4.428   7.033   0.833  0.0438 -0.0584  0.0643
 1990SOL    HW1 7411   4.410   7.108   0.889 -0.3189 -0.2057  0.1544
 1990SOL    HW2 7412   4.517   7.047   0.800  0.8980 -0.7658  1.9494
 1991SOL     OW 7413   3.783   5.997   5.459  0.0639  0.7848  0.3239
 1991SOL    HW1 7414   3.765   5.983   5.552 -0.1413 -0.9652  0.0572
 1991SOL    HW2 7415   3.741   6.081   5.439 -0.9803  0.5749  1.5244
 1992SOL     OW 7416   6.286   4.037   3.503 -0.3788  0.4291 -0.4126
 1992SOL    HW1 7417   6.199   4.037   3.542  0.2017 -1.8635  1.0904
 1992SOL    HW2 7418   6.326   4.118   3.533 -1.0019  0.1260  1.3558
 1993SOL     OW 7419   2.418   5.014   8.852 -0.0667 -0.8581  0.5862
 1993SOL    HW1 7420   2.377   4.963   8.921 -0.8227 -0.7137  0.2515
 1993SOL    HW2 7421   2.497   5.050   8.892  0.3534 -2.0678  0.9090
 1994SOL     OW 7422   3.191   6.258   1.360 -0.3560  0.0104  0.0158
 1994SOL    HW1 7423   3.116   6.210   1.327  0.5611 -0.7229 -1.0990
 1994SOL    HW2 7424   3.238   6.196   1.415 -0.0850  0.1620 -0.0383
 1995SOL     OW 7425   6.882   0.961   9.277  0.7968  0.3301 -0.5530
 1995SOL    HW1 7426   6.806   0.921   9.319  0.3812  1.4020 -0.2450
 1995SOL    HW2 7427   6.912   1.026   9.340  2.4228 -0.5583 -0.3599
 1996SOL     OW 7428   5.757   4.757   1.746  0.1083  0.4440  0.4092
 1996SOL    HW1 7429   5.787   4.700   1.676  0.7152  0.8162  0.3627
 1996SOL    HW2 7430   5.693   4.704   1.795 -0.3491  0.1992 -0.4398
 1997SOL     OW 7431   7.337   3.219   2.540 -0.6445  0.7941  0.9404
 1997SOL    HW1 7432   7.297   3.273   2.472 -1.5709  0.1082  0.9391
 1997SOL    HW2 7433   7.357   3.281   2.611  0.6683  1.5808 -0.0670
 1998SOL     OW 7434   5.152   7.009   8.145  0.0769 -0.0897 -0.4111
 1998SOL    HW1 7435   5.242   7.022   8.176 -0.1083  0.6310 -0.1417
 1998SOL    HW2 7436   5.134   7.087   8.092  0.0280 -0.8172 -1.4928
 1999SOL     OW 7437   6.952   4.687   2.606 -0.0934  0.2221 -0.3711
 1999SOL    HW1 7438   6.860   4.664   2.595 -0.4025  1.4436 -0.3899
 1999SOL    HW2 7439   6.957   4.723   2.695  0.4926 -0.3933 -0.1448
 2000SOL     OW 7440   0.937   1.532   6.732  1.0699 -0.5623 -0.3614
 2000SOL    HW1 7441   0.844   1.515   6.748  1.2442  0.3110  1.9568
 2000SOL    HW2 7442   0.982   1.481   6.799  2.1081  0.7486 -0.0222
 2001SOL     OW 7443   1.342   0.360   0.538  0.2996  0.2457  0.4271
 2001SOL    HW1 7444   1.261   0.325   0.577  0.7020  0.6183  1.6455
 2001SOL    HW2 7445   1.398   0.283   0.528  0.4687  0.2366  1.3167
 2002SOL     OW 7446   6.025   1.235   5.759 -0.2569 -0.6250  0.2081
 2002SOL    HW1 7447   5.965   1.308   5.746  1.7125  1.0860  0.0680
 2002SOL    HW2 7448   6.074   1.230   5.677  0.3721 -1.3888  0.6158
 2003SOL     OW 7449   0.075   2.054   8.819 -0.2391  0.1766 -0.0164
 2003SOL    HW1 7450   0.009   2.099   8.871 -2.5546 -1.0133 -1.7340
 2003SOL    HW2 7451   0.063   2.086   8.730  1.6098 -0.0205 -0.3954
 2004SOL     OW 7452   5.419   4.375   8.596  0.1004 -0.4728 -0.2393
 2004SOL    HW1 7453   5.460   4.349   8.678 -0.5973 -1.0216 -0.0470
 2004SOL    HW2 7454   5.467   4.327   8.529  0.3028 -0.4702 -0.0974
 2005SOL     OW 7455   2.515   3.475  11.262 -0.2285  0.0827 -0.3389
 2005SOL    HW1 7456   2.472   3.443  11.341 -0.0548  0.8212  0.0710
 2005SOL    HW2 7457   2.608   3.473  11.283 -0.2434  1.5252 -0.0128
 2006SOL     OW 7458   3.430   6.126   8.151 -0.2394  0.0387  0.0223
 2006SOL    HW1 7459   3.352   6.123   8.096  0.0162 -1.1014 -0.2997
 2006SOL    HW2 7460   3.438   6.037   8.186  0.4217  0.3747  0.7550
 2007SOL     OW 7461   0.029   0.393   0.552 -0.2100  0.2205 -0.5543
 2007SOL    HW1 7462  -0.055   0.428   0.521 -0.1954 -0.0111 -0.8565
 2007SOL    HW2 7463   0.054   0.451   0.624 -1.1814 -0.3523  0.2875
 2008SOL     OW 7464   4.425   0.040  10.499  0.4931 -0.0388  0.5443
 2008SOL    HW1 7465   4.359  -0.020  10.534 -0.7933  0.6471 -0.5969
 2008SOL    HW2 7466   4.508   0.006  10.532 -0.4498 -0.5782  2.5432
 2009SOL     OW 7467   0.325   6.580   2.808 -0.0278  0.7846 -0.0890
 2009SOL    HW1 7468   0.332   6.498   2.760 -3.3361  0.2019  0.2139
 2009SOL    HW2 7469   0.365   6.562   2.893  3.6867  1.1061 -1.5687
 2010SOL     OW 7470   7.905   4.798   2.876  0.0935 -0.3339 -0.0496
 2010SOL    HW1 7471   7.929   4.706   2.887  0.4680 -0.2570 -0.2203
 2010SOL    HW2 7472   7.918   4.815   2.783  0.9319  0.1486  0.1485
 2011SOL     OW 7473   2.800   6.758   1.022  0.9158  0.2648  0.1485
 2011SOL    HW1 7474   2.750   6.760   1.104 -0.0618 -1.7590 -0.3256
 2011SOL    HW2 7475   2.736   6.779   0.954  0.2157 -3.3958 -0.5825
 2012SOL     OW 7476   0.197   3.879   5.433 -0.4145  0.2463 -0.5928
 2012SOL    HW1 7477   0.236   3.840   5.512 -0.3237  1.7607  0.1481
 2012SOL    HW2 7478   0.127   3.934   5.466 -0.9538  0.2222 -1.6683
 2013SOL     OW 7479   7.330   0.832  11.130 -0.2193 -1.0131 -0.0304
 2013SOL    HW1 7480   7.294   0.884  11.058  2.1153 -0.7407 -1.1033
 2013SOL    HW2 7481   7.378   0.895  11.183  2.4490 -1.8945 -1.2147
 2014SOL     OW 7482   1.194   3.416   6.917 -0.0071  0.0434 -0.5425
 2014SOL    HW1 7483   1.142   3.337   6.905  0.1837 -0.1882  0.1075
 2014SOL    HW2 7484   1.133   3.488   6.902 -0.4949 -0.2252  0.1448
 2015SOL     OW 7485   1.553   0.055   7.147  0.4800 -0.0209  0.5307
 2015SOL    HW1 7486   1.475   0.085   7.194 -1.0717 -1.0641 -1.2044
 2015SOL    HW2 7487   1.536  -0.037   7.128  0.9235  0.3503 -2.0858
 2016SOL     OW 7488   4.267   3.524   5.195  0.1301 -0.0562 -0.3350
 2016SOL    HW1 7489   4.221   3.465   5.254  0.5080  0.5831  0.6337
 2016SOL    HW2 7490   4.289   3.471   5.119 -1.6323 -0.5343 -0.5400
 2017SOL     OW 7491   2.779   2.030   7.769 -0.1544 -0.2718  0.4832
 2017SOL    HW1 7492   2.751   2.010   7.859  0.0564  1.3622  0.9464
 2017SOL    HW2 7493   2.699   2.024   7.717 -0.8896  1.5871  1.3070
 2018SOL     OW 7494   4.083   6.106   1.114  0.0793 -0.0261 -0.1284
 2018SOL    HW1 7495   4.060   6.136   1.025  0.2484  0.7354  0.0750
 2018SOL    HW2 7496   4.010   6.137   1.168 -0.4032 -1.1601 -0.1126
 2019SOL     OW 7497   3.349   7.080  10.798 -0.3776  0.0945  0.5775
 2019SOL    HW1 7498   3.342   6.997  10.845 -0.3509  0.7370  1.7688
 2019SOL    HW2 7499   3.362   7.056  10.707 -0.0097 -1.2095  0.9621
 2020SOL     OW 7500   5.768   4.238   4.413 -0.2674 -0.6058  0.2626
 2020SOL    HW1 7501   5.694   4.199   4.460 -2.3002  2.9207  0.3174
 2020SOL    HW2 7502   5.837   4.244   4.478 -1.5072  0.1135  1.5703
 2021SOL     OW 7503   5.338   1.430   7.401 -0.7360  0.0284  0.2830
 2021SOL    HW1 7504   5.312   1.392   7.317 -0.5614 -0.9724  0.6651
 2021SOL    HW2 7505   5.431   1.451   7.390 -0.7181 -0.0818  0.2249
 2022SOL     OW 7506   6.174   7.291   3.240  0.0755  0.1355 -0.4981
 2022SOL    HW1 7507   6.178   7.317   3.148  0.2388 -2.0418 -1.1538
 2022SOL    HW2 7508   6.142   7.201   3.239  0.6690 -0.1590  1.5397
 2023SOL     OW 7509   7.773   0.239  10.029 -0.0618  0.1469 -0.3697
 2023SOL    HW1 7510   7.691   0.281  10.055 -0.6804 -1.4181  0.3656
 2023SOL    HW2 7511   7.752   0.194   9.947 -0.5781 -1.9603  0.8602
 2024SOL     OW 7512   7.419   7.410  11.618 -1.0655 -0.6127  0.7439
 2024SOL    HW1 7513   7.395   7.394  11.527  0.9228  2.1554 -0.4020
 2024SOL    HW2 7514   7.423   7.323  11.657 -2.2852 -1.8636 -1.7062
 2025SOL     OW 7515   5.486   0.351   6.573  0.6699 -0.0359 -0.1094
 2025SOL    HW1 7516   5.470   0.426   6.516  0.9465 -0.6008 -0.9347
 2025SOL    HW2 7517   5.410   0.349   6.632  0.4238  0.5926 -0.3995
 2026SOL     OW 7518   4.682   5.110   8.092  0.1057 -0.1223  0.3253
 2026SOL    HW1 7519   4.622   5.169   8.138 -0.5016 -1.8458  1.8320
 2026SOL    HW2 7520   4.663   5.024   8.127  0.1190 -1.4766 -2.6744
 2027SOL     OW 7521   1.707   5.781   5.385  0.0654  0.1683  0.5128
 2027SOL    HW1 7522   1.635   5.758   5.327  0.6535 -0.0385 -0.1430
 2027SOL    HW2 7523   1.751   5.855   5.343  2.2559 -1.7803 -0.8556
 2028SOL     OW 7524   6.617   3.147   1.671  0.2270 -0.3488 -0.1200
 2028SOL    HW1 7525   6.668   3.203   1.730 -0.0019  0.6246 -0.8296
 2028SOL    HW2 7526   6.548   3.204   1.638 -0.8348 -1.4292  0.1933
 2029SOL     OW 7527   4.367   4.778  11.719 -0.5969  0.2322 -0.3054
 2029SOL    HW1 7528   4.299   4.710  11.719 -1.2511  0.8788 -0.0153
 2029SOL    HW2 7529   4.348   4.831  11.797  1.1400 -0.4586  0.6464
 2030SOL     OW 7530   4.853   1.363   1.588 -0.3445 -0.2033  0.3751
 2030SOL    HW1 7531   4.915   1.314   1.535  0.7297  2.9517 -1.5100
 2030SOL    HW2 7532   4.769   1.350   1.545 -0.0758 -0.3913 -0.0964
 2031SOL     OW 7533   7.412   2.346   5.153 -0.2408 -0.2583  0.3882
 2031SOL    HW1 7534   7.389   2.324   5.062  1.6378  2.8062 -0.9886
 2031SOL    HW2 7535   7.358   2.422   5.174 -1.1271 -1.3232  2.1633
 2032SOL     OW 7536   4.509   2.788   1.582  0.1839  0.1711  0.0129
 2032SOL    HW1 7537   4.461   2.806   1.501  0.7742 -1.9861 -0.8975
 2032SOL    HW2 7538   4.561   2.867   1.597  0.4289  0.4646 -2.0028
 2033SOL     OW 7539   5.067   3.366   3.975  0.1089  0.1403 -0.0155
 2033SOL    HW1 7540   5.082   3.285   4.023 -0.9814 -1.0926 -1.6113
 2033SOL    HW2 7541   4.975   3.387   3.992  1.1036  2.8125  2.8190
 2034SOL     OW 7542   6.607   5.713   3.654 -0.1608 -0.2472  0.1671
 2034SOL    HW1 7543   6.588   5.792   3.602  2.3257 -0.2160 -0.8420
 2034SOL    HW2 7544   6.533   5.655   3.636 -0.5450  0.6810 -1.5734
 2035SOL     OW 7545   1.292   7.429  12.299  0.5001  0.5366 -0.3102
 2035SOL    HW1 7546   1.334   7.500  12.347  0.4874  1.8573 -2.1732
 2035SOL    HW2 7547   1.364   7.381  12.258  0.3723  1.0157 -1.1060
 2036SOL     OW 7548   7.170   4.727   3.280 -0.3111  0.5930 -0.3657
 2036SOL    HW1 7549   7.105   4.790   3.313  0.0067  1.3877 -1.2179
 2036SOL    HW2 7550   7.212   4.693   3.359 -1.8508 -0.0598  0.2177
 2037SOL     OW 7551   6.022   0.269   6.171  0.0068 -0.9511 -0.2504
 2037SOL    HW1 7552   5.943   0.309   6.208 -0.1560 -1.2988 -0.2171
 2037SOL    HW2 7553   6.094   0.306   6.222 -0.0782 -0.1463 -0.6903
 2038SOL     OW 7554   2.666   5.557   7.201 -0.0671  0.2323 -0.5462
 2038SOL    HW1 7555   2.574   5.568   7.223 -0.4993 -0.7764 -1.7491
 2038SOL    HW2 7556   2.681   5.618   7.128  0.1734  0.2818 -0.4568
 2039SOL     OW 7557   5.034   3.154   3.596 -0.4578  0.0060  0.0735
 2039SOL    HW1 7558   5.089   3.123   3.668  1.7141 -0.9042 -1.8515
 2039SOL    HW2 7559   5.030   3.249   3.609  1.4387  0.0782  0.4227
 2040SOL     OW 7560   1.221   5.998   5.502 -0.0528 -0.3102 -0.6096
 2040SOL    HW1 7561   1.140   5.981   5.550 -1.3180 -2.1754 -3.1788
 2040SOL    HW2 7562   1.291   5.978   5.564 -1.5865 -1.9401  0.6881
 2041SOL     OW 7563   5.375   3.158   6.302  0.4262 -0.0758 -0.8271
 2041SOL    HW1 7564   5.418   3.159   6.217  1.2384 -0.7770 -0.4434
 2041SOL    HW2 7565   5.405   3.077   6.343 -0.3257  0.0149 -0.0606
 2042SOL     OW 7566   0.481   1.173  10.790  0.3937 -0.5986 -0.3102
 2042SOL    HW1 7567   0.437   1.090  10.808  0.9287 -1.2890 -1.9853
 2042SOL    HW2 7568   0.480   1.219  10.874  0.7797 -2.6194  0.8814
 2043SOL     OW 7569   4.818   0.200   7.127  0.1141 -0.5261  0.5674
 2043SOL    HW1 7570   4.872   0.167   7.199 -0.9326 -0.6758  1.3013
 2043SOL    HW2 7571   4.768   0.272   7.166 -1.0349 -1.1065  0.2233
 2044SOL     OW 7572   5.250   6.276   1.503  0.2229  0.0795  0.4807
 2044SOL    HW1 7573   5.331   6.255   1.456  0.4796  0.4121  0.7720
 2044SOL    HW2 7574   5.197   6.197   1.496 -0.3745  0.6026 -1.6806
 2045SOL     OW 7575   6.385   2.306  11.965  0.3237  0.5117 -0.0069
 2045SOL    HW1 7576   6.437   2.296  11.886 -0.3009  2.9203 -0.8017
 2045SOL    HW2 7577   6.385   2.400  11.983 -2.2220  0.4067  0.9773
 2046SOL     OW 7578   4.628   7.854  12.041 -0.2013  0.0724  0.3161
 2046SOL    HW1 7579   4.715   7.892  12.042 -0.2831  0.2798  1.7514
 2046SOL    HW2 7580   4.571   7.924  12.009  0.0541  0.1692  0.0755
 2047SOL     OW 7581   6.943   7.211   3.480 -0.3066 -0.2854 -0.5600
 2047SOL    HW1 7582   6.984   7.297   3.483  0.0733 -0.3728 -2.4607
 2047SOL    HW2 7583   6.849   7.229   3.487 -0.2017  0.2156 -0.3777
 2048SOL     OW 7584   0.761   1.510   6.484  0.3735 -0.0218 -0.1759
 2048SOL    HW1 7585   0.832   1.563   6.447  0.4095  0.4067  0.4824
 2048SOL    HW2 7586   0.805   1.435   6.523  0.3407 -0.4440 -0.9260
 2049SOL     OW 7587   5.221   6.876   1.247 -0.1083  0.4575 -0.6204
 2049SOL    HW1 7588   5.197   6.850   1.158  0.2357  0.2437 -0.6485
 2049SOL    HW2 7589   5.160   6.947   1.268 -1.6494 -0.9092 -0.2202
 2050SOL     OW 7590   7.861   0.656   5.600 -0.0806 -0.3099 -0.1558
 2050SOL    HW1 7591   7.874   0.749   5.618  2.9173 -0.5077 -0.7913
 2050SOL    HW2 7592   7.797   0.628   5.665  3.2294  0.9897  4.1454
 2051SOL     OW 7593   0.610   3.974   8.490  0.0964 -0.6273 -0.1199
 2051SOL    HW1 7594   0.578   4.056   8.529  0.0911  0.3081 -1.9971
 2051SOL    HW2 7595   0.677   3.943   8.552  0.8996  1.4062  0.1176
 2052SOL     OW 7596   3.728   6.838  12.292  0.0110  0.3381 -0.4128
 2052SOL    HW1 7597   3.780   6.852  12.371 -0.2741  0.7574 -0.2998
 2052SOL    HW2 7598   3.751   6.911  12.235 -0.8820  0.8573 -0.1309
 2053SOL     OW 7599   5.731   6.984   8.973 -0.4073 -0.1672  0.3831
 2053SOL    HW1 7600   5.751   6.981   9.066 -2.0166  0.9796  0.7958
 2053SOL    HW2 7601   5.793   7.047   8.937  0.1525 -0.5436  0.6695
 2054SOL     OW 7602   1.513   5.137   8.017  0.3024 -0.7418 -0.0342
 2054SOL    HW1 7603   1.573   5.071   8.050 -0.9249 -1.2112  1.3684
 2054SOL    HW2 7604   1.484   5.102   7.932  1.7238 -0.6507 -0.5813
 2055SOL     OW 7605   6.932   4.206   3.101  0.1882  0.4827 -0.2650
 2055SOL    HW1 7606   7.027   4.192   3.101  0.2150  0.5990  0.7066
 2055SOL    HW2 7607   6.912   4.235   3.189 -0.9599 -1.0016  0.0124
 2056SOL     OW 7608   2.805   1.686   7.535  0.7758 -0.6272 -0.4181
 2056SOL    HW1 7609   2.713   1.711   7.521  0.7939  0.2242  0.8508
 2056SOL    HW2 7610   2.840   1.676   7.446  0.3394  2.3140 -1.0312
 2057SOL     OW 7611   5.320   2.718   8.354  0.0765  0.2836  0.7736
 2057SOL    HW1 7612   5.296   2.659   8.282 -0.3160  0.8283  0.4478
 2057SOL    HW2 7613   5.342   2.660   8.427 -2.9537 -0.2838  1.3451
 2058SOL     OW 7614   7.347   3.994   9.458  0.5976  0.0499 -0.0075
 2058SOL    HW1 7615   7.254   3.971   9.453  0.0646  1.9028  0.6964
 2058SOL    HW2 7616   7.363   4.045   9.379  0.8711  0.1689  0.1245
 2059SOL     OW 7617   2.773   4.882   5.751 -0.2014  0.5932  0.3851
 2059SOL    HW1 7618   2.848   4.941   5.761 -0.3573  0.7227  0.8217
 2059SOL    HW2 7619   2.796   4.826   5.677  0.4311  0.4655  0.6749
 2060SOL     OW 7620   1.478   0.516   3.113 -0.8044  0.1630  0.2534
 2060SOL    HW1 7621   1.532   0.517   3.192  0.9546 -0.3136 -0.8765
 2060SOL    HW2 7622   1.411   0.582   3.128  0.3704  1.1004  1.5616
 2061SOL     OW 7623   5.560   5.701   1.206 -0.1190 -0.3302 -0.1852
 2061SOL    HW1 7624   5.525   5.615   1.179  1.8248 -1.5078  0.8271
 2061SOL    HW2 7625   5.651   5.683   1.231 -0.0962  1.7722  1.4974
 2062SOL     OW 7626   2.537   4.516   6.696  0.0411 -0.2637 -0.1490
 2062SOL    HW1 7627   2.446   4.489   6.682 -0.5535  0.6247  1.7234
 2062SOL    HW2 7628   2.588   4.440   6.669 -1.4246 -2.1420  1.9127
 2063SOL     OW 7629   7.764   1.581  11.115  0.2788  0.0389 -0.4642
 2063SOL    HW1 7630   7.682   1.558  11.072 -0.2803  1.1189  0.0142
 2063SOL    HW2 7631   7.802   1.496  11.141 -1.4311 -0.4137  0.7072
 2064SOL     OW 7632   0.449   5.122   4.945  0.5458  0.6608 -0.4297
 2064SOL    HW1 7633   0.540   5.138   4.969  0.8629  0.6089 -1.5089
 2064SOL    HW2 7634   0.404   5.108   5.028  1.7803 -0.7437  0.0551
 2065SOL     OW 7635   3.376   0.192  10.167  0.7407  0.2778  0.1327
 2065SOL    HW1 7636   3.417   0.116  10.127 -0.9231 -0.7554  0.3125
 2065SOL    HW2 7637   3.349   0.162  10.254  0.4231  1.1950  0.3658
 2066SOL     OW 7638   6.277   7.785   7.198  0.6487 -0.0660  0.8488
 2066SOL    HW1 7639   6.209   7.818   7.139 -0.2803 -1.9874  0.7675
 2066SOL    HW2 7640   6.339   7.857   7.205 -0.4349  1.0802 -0.5749
 2067SOL     OW 7641   7.343   6.666   7.365  0.2778 -0.4088 -0.7700
 2067SOL    HW1 7642   7.364   6.574   7.380  1.4593 -0.0850 -0.3550
 2067SOL    HW2 7643   7.428   6.709   7.353 -0.1925  0.7845 -0.0221
 2068SOL     OW 7644   0.214   0.003  12.115  0.5714 -0.0354  0.0319
 2068SOL    HW1 7645   0.276   0.074  12.131 -1.2320  1.5810  0.2568
 2068SOL    HW2 7646   0.187   0.015  12.024 -1.1236  0.7922  0.5962
 2069SOL     OW 7647   4.369   0.694   2.315  0.8201  0.0465  0.1803
 2069SOL    HW1 7648   4.357   0.787   2.334 -0.2107 -0.0618  0.1090
 2069SOL    HW2 7649   4.286   0.666   2.277 -0.0979 -1.6541  3.1706
 2070SOL     OW 7650   1.692   4.499   2.719  0.1375 -0.1060  0.5588
 2070SOL    HW1 7651   1.735   4.570   2.672 -0.4742 -0.4571 -0.5791
 2070SOL    HW2 7652   1.598   4.515   2.706 -0.0256 -2.2364 -1.5754
 2071SOL     OW 7653   4.990   3.091  10.063 -0.1004  0.1772  0.7063
 2071SOL    HW1 7654   4.985   3.020   9.999  0.6966  0.9076 -0.1862
 2071SOL    HW2 7655   5.005   3.047  10.147 -0.9628 -0.7754  0.3763
 2072SOL     OW 7656   2.666   7.783  10.240  0.1380 -0.0970  0.1391
 2072SOL    HW1 7657   2.721   7.799  10.163 -1.6009 -0.1905 -1.1745
 2072SOL    HW2 7658   2.636   7.870  10.266  1.4818  0.0427  1.3553
 2073SOL     OW 7659   6.988   7.505   6.261 -0.5030 -0.4314  0.7115
 2073SOL    HW1 7660   7.056   7.547   6.210 -0.2447 -1.4689  0.1613
 2073SOL    HW2 7661   6.984   7.554   6.343 -0.5650  0.9392 -0.0862
 2074SOL     OW 7662   3.537   5.876   4.184 -0.4623  0.0241  0.2339
 2074SOL    HW1 7663   3.629   5.905   4.185  0.4915 -2.7319  0.4492
 2074SOL    HW2 7664   3.524   5.840   4.097 -1.7959  1.5420 -0.2378
 2075SOL     OW 7665   0.180   2.086   3.234 -0.0630 -0.0891 -0.4300
 2075SOL    HW1 7666   0.179   2.083   3.330  1.1146  0.5939 -0.3659
 2075SOL    HW2 7667   0.118   2.019   3.207 -0.6046 -0.1226  0.8150
 2076SOL     OW 7668   7.855   7.895   3.981  0.0930  0.3781 -0.1830
 2076SOL    HW1 7669   7.797   7.970   3.966  2.1991  1.9571 -0.9658
 2076SOL    HW2 7670   7.819   7.826   3.927 -0.2660  1.7796 -1.8291
 2077SOL     OW 7671   2.233   1.689  12.384  0.1851  0.1979  0.3077
 2077SOL    HW1 7672   2.309   1.635  12.406  0.1852  0.2739  0.4973
 2077SOL    HW2 7673   2.163   1.626  12.369 -0.2473  0.1674  2.1369
 2078SOL     OW 7674   1.139   6.026   3.396  0.3035 -0.1384  0.8399
 2078SOL    HW1 7675   1.103   5.965   3.460 -0.2412  0.0226  0.6911
 2078SOL    HW2 7676   1.234   6.022   3.410  0.1530  0.5776  2.2880
 2079SOL     OW 7677   0.969   6.054   1.484 -0.7954  0.2483  0.3215
 2079SOL    HW1 7678   1.042   6.100   1.444 -0.1586  0.2027  1.3951
 2079SOL    HW2 7679   0.935   6.115   1.549 -2.5709  0.7887 -1.0401
 2080SOL     OW 7680   4.996   0.784   4.229 -0.5710 -0.4117 -0.2886
 2080SOL    HW1 7681   4.946   0.810   4.306 -1.2813  1.4126 -1.3040
 2080SOL    HW2 7682   4.931   0.781   4.158 -0.1465 -3.1134 -0.6730
 2081SOL     OW 7683   2.474   6.938   5.356 -0.3494 -0.0015  0.3335
 2081SOL    HW1 7684   2.439   6.997   5.289 -0.0597  2.0026  1.8581
 2081SOL    HW2 7685   2.563   6.919   5.327 -0.0464  1.2612  0.3624
 2082SOL     OW 7686   3.134   5.627   6.356  0.1402 -0.5792 -0.2128
 2082SOL    HW1 7687   3.090   5.557   6.405  0.3415  0.5688  1.7141
 2082SOL    HW2 7688   3.093   5.708   6.387  0.9438  0.2659 -1.2695
 2083SOL     OW 7689   4.251   7.694  11.414 -0.0959 -0.0107  0.2757
 2083SOL    HW1 7690   4.155   7.696  11.406 -0.0344  0.9551 -0.3753
 2083SOL    HW2 7691   4.273   7.777  11.457  0.4572 -0.1569  0.2807
 2084SOL     OW 7692   0.016   6.235   1.046 -0.4152  0.6112 -0.7592
 2084SOL    HW1 7693   0.057   6.152   1.068 -1.3703 -0.0123 -1.2393
 2084SOL    HW2 7694   0.086   6.300   1.056  0.1325 -0.1250  0.4128
 2085SOL     OW 7695   0.834   7.670   4.770 -0.0933 -0.5601  0.0093
 2085SOL    HW1 7696   0.863   7.583   4.744  0.2291 -0.7885  1.0579
 2085SOL    HW2 7697   0.853   7.674   4.864  0.6976  0.9559 -0.1891
 2086SOL     OW 7698   3.610   0.285   1.374  0.5118 -0.5162 -0.6683
 2086SOL    HW1 7699   3.542   0.217   1.376 -1.5000  1.4032  0.1635
 2086SOL    HW2 7700   3.604   0.323   1.286 -0.3024  0.3847 -0.2405
 2087SOL     OW 7701   4.390   4.138   0.307 -0.6174 -0.2429 -0.4471
 2087SOL    HW1 7702   4.322   4.201   0.330 -0.5176 -0.7580  1.4729
 2087SOL    HW2 7703   4.405   4.088   0.387  2.0897 -0.0991 -0.7381
 2088SOL     OW 7704   4.901   1.721   6.370 -0.5369 -0.3237 -0.5263
 2088SOL    HW1 7705   4.857   1.804   6.350 -1.2970 -0.0806  1.9139
 2088SOL    HW2 7706   4.982   1.747   6.414 -0.7233 -0.8516  0.1477
 2089SOL     OW 7707   4.456   4.241   3.191  0.6818  0.0040 -0.5016
 2089SOL    HW1 7708   4.547   4.224   3.167  1.2091  1.0722  0.6233
 2089SOL    HW2 7709   4.405   4.210   3.116  1.9614 -0.6140 -1.1479
 2090SOL     OW 7710   6.730   6.719   9.574 -0.4828 -0.3215 -0.0966
 2090SOL    HW1 7711   6.779   6.663   9.634  0.2447 -1.1106 -1.3822
 2090SOL    HW2 7712   6.646   6.674   9.562  0.4370 -1.7181 -1.8431
 2091SOL     OW 7713   3.739   6.987   4.347 -0.2774  0.1166  0.0585
 2091SOL    HW1 7714   3.646   6.998   4.332 -0.2575 -0.9563 -0.9522
 2091SOL    HW2 7715   3.749   6.895   4.372  0.6596 -0.1465 -1.2030
 2092SOL     OW 7716   3.004   3.005   8.417 -0.1386  0.1898 -0.4570
 2092SOL    HW1 7717   2.953   2.955   8.482  0.3514  1.2598  0.7938
 2092SOL    HW2 7718   3.092   3.011   8.455  0.7332 -0.9035 -2.1931
 2093SOL     OW 7719   7.376   4.528  12.086  0.0207  0.1809  0.0412
 2093SOL    HW1 7720   7.333   4.613  12.097  0.1473  0.0637  1.7461
 2093SOL    HW2 7721   7.370   4.510  11.993  1.1483  2.6761 -0.5920
 2094SOL     OW 7722   5.566   0.236   1.355  0.1161  0.2476 -0.5953
 2094SOL    HW1 7723   5.473   0.262   1.353 -0.0994 -0.3733  0.5817
 2094SOL    HW2 7724   5.585   0.223   1.447  0.5868 -2.4342 -0.9840
 2095SOL     OW 7725   6.268   0.635   6.529  0.5312 -0.3826 -0.0841
 2095SOL    HW1 7726   6.204   0.668   6.592  2.6524  0.0464  1.9741
 2095SOL    HW2 7727   6.271   0.702   6.461 -0.5149  0.0297  0.2447
 2096SOL     OW 7728   5.713   2.210   1.282  0.4770 -0.1542  0.3822
 2096SOL    HW1 7729   5.749   2.279   1.226 -1.6776 -1.7042 -3.2877
 2096SOL    HW2 7730   5.746   2.129   1.244 -1.3781 -1.3100  1.0723
 2097SOL     OW 7731   7.274   3.159  10.755  0.4003  0.8519 -0.3246
 2097SOL    HW1 7732   7.365   3.158  10.726  1.0017 -0.8741  1.3669
 2097SOL    HW2 7733   7.255   3.067  10.776 -0.9883  1.4790  1.4170
 2098SOL     OW 7734   0.321   6.462   6.019  0.1589 -0.0759 -0.1212
 2098SOL    HW1 7735   0.315   6.513   5.938  0.2928 -2.2675 -1.5911
 2098SOL    HW2 7736   0.249   6.495   6.073 -0.4219  0.9245 -1.4405
 2099SOL     OW 7737   6.751   1.507   3.080  0.7399  0.4737 -0.3095
 2099SOL    HW1 7738   6.724   1.592   3.045  0.4190  0.7229  0.5296
 2099SOL    HW2 7739   6.673   1.452   3.073  1.0056  0.1699 -1.0490
 2100SOL     OW 7740   6.054   5.147   9.362 -0.0757  0.1157 -0.2847
 2100SOL    HW1 7741   6.139   5.133   9.403 -0.8619 -0.4832  1.1963
 2100SOL    HW2 7742   6.028   5.061   9.330 -0.0182  0.3512 -1.0014
 2101SOL     OW 7743   7.019   2.966  12.356  0.2176 -0.1352 -0.1128
 2101SOL    HW1 7744   7.105   2.925  12.354  1.7081  2.6351  1.3272
 2101SOL    HW2 7745   7.037   3.059  12.369 -2.9353  0.9885 -2.4142
 2102SOL     OW 7746   4.316   7.376  12.275 -0.7529  0.5644 -0.0445
 2102SOL    HW1 7747   4.248   7.333  12.223  0.2888  0.5729 -1.4691
 2102SOL    HW2 7748   4.324   7.323  12.354 -2.1020  0.3257 -0.0497
 2103SOL     OW 7749   0.429   2.544   4.830 -0.7988 -0.0479  0.0451
 2103SOL    HW1 7750   0.420   2.456   4.868 -1.2958 -0.1564 -0.3218
 2103SOL    HW2 7751   0.380   2.540   4.748 -1.0206  0.6448  0.1429
 2104SOL     OW 7752   5.803   2.683   7.018 -0.2666 -0.1512  0.2195
 2104SOL    HW1 7753   5.794   2.588   7.008  0.0427 -0.4182  2.1522
 2104SOL    HW2 7754   5.781   2.699   7.110  0.4798  1.5465  0.1218
 2105SOL     OW 7755   1.143   4.490   8.695  0.5108  1.0442  0.2392
 2105SOL    HW1 7756   1.182   4.498   8.782 -1.2998 -0.7129  1.2926
 2105SOL    HW2 7757   1.086   4.566   8.687 -0.0913  0.6963  1.0494
 2106SOL     OW 7758   0.880   6.564  11.354 -0.2306 -0.0645  0.0109
 2106SOL    HW1 7759   0.808   6.542  11.295  0.7287  1.0210 -1.6225
 2106SOL    HW2 7760   0.848   6.537  11.440 -2.1973 -0.4984 -0.7855
 2107SOL     OW 7761   1.215   4.499   1.353 -0.1288 -0.0956 -0.2928
 2107SOL    HW1 7762   1.123   4.522   1.365 -0.6810 -2.2153 -0.0526
 2107SOL    HW2 7763   1.257   4.581   1.324 -2.4774  0.4222 -2.6117
 2108SOL     OW 7764   0.612   3.505   8.804 -0.3942 -0.2306  0.2901
 2108SOL    HW1 7765   0.603   3.600   8.804 -2.5760 -0.3583 -1.1408
 2108SOL    HW2 7766   0.666   3.486   8.880  0.4212  2.1644  0.3904
 2109SOL     OW 7767   7.817   1.366   6.603 -0.4758 -0.0197 -0.2763
 2109SOL    HW1 7768   7.839   1.452   6.566  0.4948 -0.6047 -1.1172
 2109SOL    HW2 7769   7.724   1.374   6.626 -0.2511  1.4500  0.2545
 2110SOL     OW 7770   1.076   7.046   9.989  0.0420  0.1263  0.1947
 2110SOL    HW1 7771   1.111   7.073  10.074  3.1935  0.6373 -1.1362
 2110SOL    HW2 7772   1.056   7.129   9.945  1.5717  0.0440 -0.7212
 2111SOL     OW 7773   4.402   2.748   7.688 -0.1427 -0.3054  0.1016
 2111SOL    HW1 7774   4.467   2.680   7.671  0.2222 -0.1845  0.9720
 2111SOL    HW2 7775   4.317   2.704   7.677  0.0790 -1.1434  1.4786
 2112SOL     OW 7776   0.276   1.472  10.810  0.0291 -0.8476 -0.8620
 2112SOL    HW1 7777   0.297   1.408  10.742  0.9362 -1.3249 -0.1637
 2112SOL    HW2 7778   0.187   1.499  10.791 -0.9645 -3.4735 -0.3152
 2113SOL     OW 7779   2.599   5.425   3.312 -0.1938 -0.0955  0.0031
 2113SOL    HW1 7780   2.615   5.440   3.405  2.9280 -1.1582 -0.2444
 2113SOL    HW2 7781   2.528   5.361   3.310 -0.2713 -0.0991  1.6565
 2114SOL     OW 7782   1.994   0.591   3.724  0.2491 -0.6604  0.0533
 2114SOL    HW1 7783   1.953   0.669   3.763 -0.5821 -1.0537 -0.0275
 2114SOL    HW2 7784   1.971   0.596   3.632  0.9755 -0.5192 -0.1245
 2115SOL     OW 7785   5.273   0.678   8.849  0.5530 -0.6626  0.1702
 2115SOL    HW1 7786   5.318   0.740   8.792 -0.0024  0.2762  0.7144
 2115SOL    HW2 7787   5.180   0.701   8.840  0.3699 -1.2020  0.6319
 2116SOL     OW 7788   2.655   0.965   1.305  0.1474  0.0522 -0.8753
 2116SOL    HW1 7789   2.724   0.920   1.258 -0.3834 -0.8489 -0.8074
 2116SOL    HW2 7790   2.591   0.989   1.237  0.1344  0.1516 -0.8283
 2117SOL     OW 7791   7.132   0.242   4.271 -0.0918 -0.0438  0.4952
 2117SOL    HW1 7792   7.079   0.162   4.265 -1.0142  0.5550  0.5213
 2117SOL    HW2 7793   7.154   0.262   4.180 -1.1350  0.4992  0.3506
 2118SOL     OW 7794   0.596   6.845   0.728  0.4642  0.4029  0.3028
 2118SOL    HW1 7795   0.557   6.760   0.706  0.2848  0.5431  0.0758
 2118SOL    HW2 7796   0.671   6.823   0.783  0.7271  0.0611 -0.1776
 2119SOL     OW 7797   5.467   0.544   3.592  0.2885  0.5326  0.1337
 2119SOL    HW1 7798   5.411   0.501   3.527  0.1871 -0.7522  1.0445
 2119SOL    HW2 7799   5.542   0.576   3.541 -0.5826  1.0297 -0.8669
 2120SOL     OW 7800   7.630   4.572   9.518 -0.0026 -0.6371 -0.1554
 2120SOL    HW1 7801   7.538   4.597   9.524  0.1718 -0.0098  0.0108
 2120SOL    HW2 7802   7.676   4.654   9.501  0.4519 -1.0526 -1.0340
 2121SOL     OW 7803   6.352   2.860   6.839  0.6771 -0.1294  0.9822
 2121SOL    HW1 7804   6.398   2.825   6.916  1.2394 -1.2432  0.1661
 2121SOL    HW2 7805   6.300   2.933   6.873  1.4368 -0.1746  2.2988
 2122SOL     OW 7806   1.293   6.531  11.468  0.4802  0.1947 -0.0032
 2122SOL    HW1 7807   1.334   6.445  11.477  1.9282  0.9483  0.8406
 2122SOL    HW2 7808   1.245   6.526  11.385  0.6444 -1.3752 -0.0327
 2123SOL     OW 7809   0.702   3.246  11.819 -0.5039  0.2735  0.6121
 2123SOL    HW1 7810   0.623   3.253  11.873 -1.0411 -0.4362 -0.0566
 2123SOL    HW2 7811   0.670   3.251  11.729  0.1658 -0.3842  0.3244
 2124SOL     OW 7812   6.678   1.679   5.346 -0.2736  0.2791 -0.0062
 2124SOL    HW1 7813   6.599   1.642   5.387 -0.8870  1.3897 -0.1475
 2124SOL    HW2 7814   6.728   1.716   5.418  1.2220 -2.2914  0.3800
 2125SOL     OW 7815   1.449   0.525   5.061  1.3746 -0.3132 -0.1201
 2125SOL    HW1 7816   1.490   0.610   5.044  2.2640 -0.8513 -0.7573
 2125SOL    HW2 7817   1.375   0.522   5.000 -0.7041  1.3123  2.0783
 2126SOL     OW 7818   5.419   1.210   3.993 -0.4167 -0.5900  0.0704
 2126SOL    HW1 7819   5.424   1.301   3.963 -0.6103 -0.3103  0.8769
 2126SOL    HW2 7820   5.339   1.176   3.954 -1.0073 -0.0357  0.7900
 2127SOL     OW 7821   2.687   4.858   8.405  0.4956 -0.7245  0.7160
 2127SOL    HW1 7822   2.757   4.907   8.361 -0.8003  0.0422 -0.5623
 2127SOL    HW2 7823   2.718   4.849   8.495  2.2897 -0.5068  0.1609
 2128SOL     OW 7824   2.866   5.503   4.980  0.4417 -0.0574  0.1682
 2128SOL    HW1 7825   2.901   5.511   5.069 -0.8618 -0.6011  0.7581
 2128SOL    HW2 7826   2.775   5.530   4.988  0.0813 -0.9157 -0.8485
 2129SOL     OW 7827   1.889   1.362   7.212  0.0207  0.4088  0.4139
 2129SOL    HW1 7828   1.869   1.272   7.187  0.7077  0.3031  0.2340
 2129SOL    HW2 7829   1.922   1.403   7.132 -0.2626  0.8215  0.4995
 2130SOL     OW 7830   3.686   3.786  12.141 -0.5284  0.1006  0.0650
 2130SOL    HW1 7831   3.779   3.778  12.162 -0.3495 -0.4119 -0.8639
 2130SOL    HW2 7832   3.642   3.729  12.204  0.2446 -3.9783 -2.6664
 2131SOL     OW 7833   1.073   5.837   2.605  0.3649 -0.0410 -0.1596
 2131SOL    HW1 7834   1.159   5.838   2.647 -0.1671 -1.1405  1.0183
 2131SOL    HW2 7835   1.074   5.758   2.551  0.9542  1.2283 -2.1351
 2132SOL     OW 7836   3.239   2.345   6.491  0.0885 -0.4586 -0.1015
 2132SOL    HW1 7837   3.321   2.395   6.495 -0.6525  1.0107 -1.9359
 2132SOL    HW2 7838   3.182   2.389   6.554 -0.2629  0.4656 -1.0470
 2133SOL     OW 7839   4.577   2.243   1.237 -0.4259 -0.5767 -0.1529
 2133SOL    HW1 7840   4.511   2.269   1.301 -0.4074 -0.2054 -0.2803
 2133SOL    HW2 7841   4.652   2.300   1.255  0.0028 -1.2556  0.2366
 2134SOL     OW 7842   0.877   4.080   5.590 -0.0032 -0.1226  0.0975
 2134SOL    HW1 7843   0.880   3.986   5.607  0.2757  0.3017  2.8224
 2134SOL    HW2 7844   0.949   4.117   5.641 -0.8192  1.6956  0.0363
 2135SOL     OW 7845   5.163   5.107   6.929 -0.7975  0.0161  0.0801
 2135SOL    HW1 7846   5.200   5.145   7.008 -0.2539 -1.4750  0.5842
 2135SOL    HW2 7847   5.099   5.171   6.898  0.8001  1.7857  0.2806
 2136SOL     OW 7848   6.264   3.945  11.265  0.2555  0.7765 -0.3843
 2136SOL    HW1 7849   6.232   3.932  11.354  0.5697 -1.1269 -0.5030
 2136SOL    HW2 7850   6.187   3.937  11.209  0.2121  0.9464 -0.3473
 2137SOL     OW 7851   7.659   3.271   9.670 -0.2772  0.2947  0.1598
 2137SOL    HW1 7852   7.604   3.220   9.728  2.9472 -0.5146  2.7979
 2137SOL    HW2 7853   7.739   3.219   9.661  1.3285  2.7598 -0.8601
 2138SOL     OW 7854   4.288   5.943   1.481 -0.0127  0.0227  0.6185
 2138SOL    HW1 7855   4.228   5.927   1.409  0.2389 -0.9081  0.6030
 2138SOL    HW2 7856   4.313   5.856   1.511  1.9003  0.3720  0.1517
 2139SOL     OW 7857   2.074   1.437   0.399  0.0648 -0.4743  0.1468
 2139SOL    HW1 7858   2.061   1.370   0.466  2.9746  0.5478  1.8737
 2139SOL    HW2 7859   2.012   1.506   0.422 -1.8960 -1.8072 -0.7771
 2140SOL     OW 7860   3.989   2.744   3.881  0.2603 -0.1780 -0.2596
 2140SOL    HW1 7861   4.077   2.726   3.913  0.1386  1.2550  0.9704
 2140SOL    HW2 7862   4.002   2.782   3.794  0.6952 -2.1579 -1.1159
 2141SOL     OW 7863   1.549   2.764   0.577 -0.0791  0.5103  0.3586
 2141SOL    HW1 7864   1.543   2.729   0.488 -1.8471  0.0797  0.5974
 2141SOL    HW2 7865   1.634   2.734   0.609  1.8322  2.8531 -2.0282
 2142SOL     OW 7866   7.847   6.126   4.515  0.0930 -0.2857  0.2371
 2142SOL    HW1 7867   7.928   6.153   4.558 -0.2421 -1.4960  1.7087
 2142SOL    HW2 7868   7.856   6.159   4.425  1.6978  0.5861  0.6671
 2143SOL     OW 7869   1.475   7.743   8.357 -0.1771  0.2259 -0.0445
 2143SOL    HW1 7870   1.537   7.689   8.307  1.0083  0.6467  0.9361
 2143SOL    HW2 7871   1.522   7.824   8.375 -0.2160 -0.2117  2.4460
 2144SOL     OW 7872   0.522   1.288   7.699  0.2606 -0.0701 -0.2458
 2144SOL    HW1 7873   0.539   1.296   7.793  1.5170 -0.7890 -0.3996
 2144SOL    HW2 7874   0.476   1.205   7.690  0.6537 -0.2752 -0.3381
 2145SOL     OW 7875   2.008   7.709   5.441 -0.2719 -0.1425  0.1891
 2145SOL    HW1 7876   1.916   7.709   5.465 -0.2110  0.7591  0.4370
 2145SOL    HW2 7877   2.048   7.775   5.497  0.4545 -0.2504 -0.1869
 2146SOL     OW 7878   6.228   3.570  10.816  0.1800  0.0736  0.0665
 2146SOL    HW1 7879   6.307   3.615  10.846 -0.0437 -0.0314  0.8532
 2146SOL    HW2 7880   6.253   3.477  10.813  0.4431  0.1650 -0.8990
 2147SOL     OW 7881   7.501   2.808   9.588 -0.2892 -0.6603  0.0833
 2147SOL    HW1 7882   7.517   2.878   9.526  0.6479 -1.5708 -0.7494
 2147SOL    HW2 7883   7.406   2.794   9.585 -0.1659 -1.3291 -1.8971
 2148SOL     OW 7884   4.651   7.730   8.759 -0.4236  0.2081  0.0849
 2148SOL    HW1 7885   4.628   7.747   8.668  0.5727 -0.1682 -0.2554
 2148SOL    HW2 7886   4.669   7.636   8.761 -0.3139  0.2411  0.6357
 2149SOL     OW 7887   5.067   0.767   5.564 -0.0885 -0.2543  0.2039
 2149SOL    HW1 7888   5.019   0.848   5.549  0.7176  0.1796 -0.1406
 2149SOL    HW2 7889   5.023   0.702   5.510 -1.8806 -0.5174  1.8865
 2150SOL     OW 7890   0.173   1.485   1.093 -0.5228 -0.0850 -0.4437
 2150SOL    HW1 7891   0.177   1.461   1.186 -0.1856  0.0025 -0.4339
 2150SOL    HW2 7892   0.084   1.463   1.067  0.6664 -5.0023 -1.4035
 2151SOL     OW 7893   4.225   3.971   7.788 -0.4438  0.1849 -0.6426
 2151SOL    HW1 7894   4.315   3.937   7.784 -0.6430 -0.5679  0.5701
 2151SOL    HW2 7895   4.231   4.048   7.844 -0.8423 -1.0851  1.2592
 2152SOL     OW 7896   6.537   1.787   0.263  0.5126 -0.7243 -0.3322
 2152SOL    HW1 7897   6.465   1.850   0.258  0.3468 -0.8723  0.1942
 2152SOL    HW2 7898   6.542   1.749   0.175 -0.2983 -0.9858 -0.2710
 2153SOL     OW 7899   1.317   4.136   1.769  0.4089 -0.4415  0.3058
 2153SOL    HW1 7900   1.302   4.216   1.719 -0.5083  1.0810  2.8111
 2153SOL    HW2 7901   1.259   4.071   1.729  0.5052  0.3791 -1.2226
 2154SOL     OW 7902   5.968   0.148   7.766  0.8044  0.3928 -0.5658
 2154SOL    HW1 7903   5.880   0.144   7.803  0.5434 -2.3477 -1.2298
 2154SOL    HW2 7904   6.019   0.199   7.829 -0.3949 -1.1961  1.8439
 2155SOL     OW 7905   4.945   0.140   9.014  0.6090  0.1964  0.0878
 2155SOL    HW1 7906   4.935   0.100   9.100 -0.8981 -1.7113 -0.8935
 2155SOL    HW2 7907   4.857   0.170   8.990  0.9709  0.5680 -0.8552
 2156SOL     OW 7908   2.968   2.651   5.787  0.3254 -0.0472 -0.3905
 2156SOL    HW1 7909   2.931   2.563   5.794 -0.1777  0.1075 -1.1103
 2156SOL    HW2 7910   2.952   2.690   5.873  0.9197 -0.7929  0.0756
 2157SOL     OW 7911   1.970   0.161   9.838 -0.2507  0.1407 -0.4034
 2157SOL    HW1 7912   2.003   0.077   9.869 -1.1392  0.4487  1.5254
 2157SOL    HW2 7913   2.023   0.226   9.884 -2.2813  0.6170  1.4269
 2158SOL     OW 7914   1.242   1.558   8.563 -0.4610  0.3710 -0.2054
 2158SOL    HW1 7915   1.165   1.611   8.542 -0.3521  0.9830  0.8809
 2158SOL    HW2 7916   1.313   1.596   8.512  0.2208  2.9988  2.4285
 2159SOL     OW 7917   2.248   1.091   4.762 -0.3424  0.0863 -0.5432
 2159SOL    HW1 7918   2.186   1.085   4.835 -1.9299  2.4610 -1.5854
 2159SOL    HW2 7919   2.320   1.144   4.796  0.6637 -1.7313  0.3121
 2160SOL     OW 7920   5.553   3.728   9.400 -0.9446  0.1679 -0.3170
 2160SOL    HW1 7921   5.554   3.791   9.327  0.6592  1.1512  0.4934
 2160SOL    HW2 7922   5.590   3.648   9.362  0.4807  0.8641 -0.4726
 2161SOL     OW 7923   6.114   2.056   1.290 -0.2031  0.1811  0.0968
 2161SOL    HW1 7924   6.208   2.059   1.311 -0.4543  0.5970  1.2331
 2161SOL    HW2 7925   6.110   2.007   1.208  1.0256  0.3115 -0.0730
 2162SOL     OW 7926   1.427   3.471   2.414 -0.1274 -0.2401 -0.2790
 2162SOL    HW1 7927   1.407   3.378   2.406 -0.5277 -0.0486 -1.9353
 2162SOL    HW2 7928   1.405   3.508   2.328  0.5044  1.2934  0.1777
 2163SOL     OW 7929   4.484   2.743   5.890  0.2359 -0.0315  0.1906
 2163SOL    HW1 7930   4.492   2.648   5.893 -0.5660 -0.0900  1.2041
 2163SOL    HW2 7931   4.492   2.765   5.797  0.7641 -1.0525 -0.0182
 2164SOL     OW 7932   6.344   0.637   3.585  0.0034  0.8253 -0.4614
 2164SOL    HW1 7933   6.302   0.611   3.503 -0.1902 -0.9556  0.1558
 2164SOL    HW2 7934   6.300   0.585   3.652  2.1284  0.0012  0.3837
 2165SOL     OW 7935   0.322   4.351   2.465  0.0566 -0.1010 -0.2047
 2165SOL    HW1 7936   0.359   4.352   2.377  1.3695  1.6465  0.3050
 2165SOL    HW2 7937   0.389   4.390   2.520 -1.0271 -0.4675  1.4702
 2166SOL     OW 7938   1.900   3.588   3.848  0.1393  0.8089 -0.5036
 2166SOL    HW1 7939   1.844   3.650   3.801 -1.4830 -0.1253  0.0812
 2166SOL    HW2 7940   1.878   3.503   3.810 -2.8884 -0.3431  3.1370
 2167SOL     OW 7941   3.731   0.933   1.099  0.6207 -0.1330 -0.4146
 2167SOL    HW1 7942   3.646   0.891   1.088  0.5962  0.0360 -0.9106
 2167SOL    HW2 7943   3.741   0.988   1.021  0.4998  1.0409  0.3656
 2168SOL     OW 7944   3.212   5.999   3.812 -0.5643 -0.7516  0.4102
 2168SOL    HW1 7945   3.125   5.968   3.838 -1.1011  0.6899  0.4552
 2168SOL    HW2 7946   3.248   6.038   3.892  0.4160 -1.9165  0.5643
 2169SOL     OW 7947   1.667   2.229   4.331 -0.5290  0.2633  0.0471
 2169SOL    HW1 7948   1.733   2.160   4.338  2.0133  2.5317  0.2167
 2169SOL    HW2 7949   1.664   2.249   4.237 -1.4033 -0.1623 -0.0259
 2170SOL     OW 7950   5.884   0.540   2.596  1.1869  0.1817  0.0067
 2170SOL    HW1 7951   5.894   0.537   2.501  0.8463  1.6773 -0.0938
 2170SOL    HW2 7952   5.931   0.618   2.623  1.5871 -0.4242  1.1282
 2171SOL     OW 7953   4.314   3.539   9.825  0.1192  0.1325  0.1338
 2171SOL    HW1 7954   4.373   3.578   9.760  0.4590  1.6569  1.3167
 2171SOL    HW2 7955   4.228   3.578   9.806 -0.2603 -1.0391 -0.7068
 2172SOL     OW 7956   7.487   7.222   4.885  0.6245 -0.2889  0.4396
 2172SOL    HW1 7957   7.543   7.217   4.962  0.4148  0.0133  0.6156
 2172SOL    HW2 7958   7.469   7.131   4.861 -0.1924 -0.3956  1.4008
 2173SOL     OW 7959   5.887   0.754   3.712  0.2200 -0.7241  0.1781
 2173SOL    HW1 7960   5.854   0.836   3.750  0.0487 -0.8201  0.2334
 2173SOL    HW2 7961   5.836   0.742   3.632  0.5096 -0.5766 -0.0333
 2174SOL     OW 7962   3.462   2.662   5.633  0.1803 -0.1050  0.3830
 2174SOL    HW1 7963   3.372   2.690   5.648 -0.0355  0.4848 -1.7246
 2174SOL    HW2 7964   3.454   2.589   5.571  1.1647  0.1465 -0.0594
 2175SOL     OW 7965   2.767   3.358   1.773 -0.1803  0.0476  0.9529
 2175SOL    HW1 7966   2.671   3.363   1.779 -0.3827  1.2288 -1.7959
 2175SOL    HW2 7967   2.789   3.420   1.704  2.2906 -2.5112 -0.7230
 2176SOL     OW 7968   6.856   6.412   5.560 -0.1482 -0.1666 -0.1028
 2176SOL    HW1 7969   6.905   6.426   5.479 -0.8865 -0.3217 -0.5856
 2176SOL    HW2 7970   6.895   6.333   5.599 -1.9193 -2.0945 -1.9958
 2177SOL     OW 7971   5.560   3.714   0.408  0.2884  0.2906 -0.0544
 2177SOL    HW1 7972   5.478   3.666   0.397 -0.1057  0.2411  2.4111
 2177SOL    HW2 7973   5.616   3.654   0.458  2.0816  0.1248 -2.0872
 2178SOL     OW 7974   2.495   1.963   6.347 -0.0794 -0.0923  0.2104
 2178SOL    HW1 7975   2.455   2.050   6.352  0.0777 -0.0667  1.4951
 2178SOL    HW2 7976   2.432   1.905   6.390 -0.1030 -0.5902 -0.4833
 2179SOL     OW 7977   1.759   2.452   2.248 -0.3200  0.0768 -0.0731
 2179SOL    HW1 7978   1.781   2.367   2.285 -0.1196  0.8210  1.5981
 2179SOL    HW2 7979   1.839   2.504   2.259 -0.5290  0.5812 -0.8238
 2180SOL     OW 7980   3.764   5.595   2.597 -0.1843 -0.7489 -0.4777
 2180SOL    HW1 7981   3.836   5.626   2.542 -0.4946  0.9154  0.0186
 2180SOL    HW2 7982   3.689   5.590   2.537  0.2858 -2.5014 -0.9998
 2181SOL     OW 7983   1.640   6.412   0.939  0.3993  0.3774  0.1928
 2181SOL    HW1 7984   1.627   6.499   0.899  0.0225 -0.7629 -2.3645
 2181SOL    HW2 7985   1.556   6.367   0.926  1.0858 -0.8919  0.0439
 2182SOL     OW 7986   7.498   7.505   2.194  0.5751 -0.4057  0.3100
 2182SOL    HW1 7987   7.465   7.429   2.242  0.6421  0.2100  1.3401
 2182SOL    HW2 7988   7.504   7.474   2.103  1.7614 -2.0094  0.8933
 2183SOL     OW 7989   0.436   4.924   2.484  0.2243  0.0443 -0.2788
 2183SOL    HW1 7990   0.376   4.903   2.413  0.5118  0.3600 -0.6198
 2183SOL    HW2 7991   0.419   4.858   2.551 -0.2878 -0.0490 -0.5002
 2184SOL     OW 7992   5.940   5.298  12.100 -0.5088 -0.2016 -0.2585
 2184SOL    HW1 7993   5.939   5.391  12.122 -0.5175  0.2070 -1.8365
 2184SOL    HW2 7994   6.033   5.275  12.097 -0.5202 -0.3755  0.6187
 2185SOL     OW 7995   6.724   1.288   7.882 -0.7858 -0.0245 -0.7269
 2185SOL    HW1 7996   6.708   1.351   7.951 -3.1270  0.6798 -1.7945
 2185SOL    HW2 7997   6.703   1.203   7.921 -1.4190  0.2904 -0.3680
 2186SOL     OW 7998   6.776   3.413  10.104  0.0854 -0.1317  0.5182
 2186SOL    HW1 7999   6.824   3.484  10.146  0.6143 -1.3267  2.0340
 2186SOL    HW2 8000   6.826   3.334  10.126 -1.1622 -1.1136 -0.0396
 2187SOL     OW 8001   0.638   0.936   8.638  0.8936 -0.0672  0.3604
 2187SOL    HW1 8002   0.655   0.842   8.629  0.0452 -0.2055  0.1952
 2187SOL    HW2 8003   0.589   0.959   8.560  2.2305  0.7961 -0.2489
 2188SOL     OW 8004   1.680   0.637   7.739  0.4127 -0.2422  0.1641
 2188SOL    HW1 8005   1.737   0.616   7.665 -0.5720  1.5313 -1.1552
 2188SOL    HW2 8006   1.662   0.552   7.780  1.7740 -1.1489 -1.0088
 2189SOL     OW 8007   6.508   1.510  10.170  0.6739  0.1448  0.4928
 2189SOL    HW1 8008   6.495   1.586  10.113 -1.2410  0.0162  0.6947
 2189SOL    HW2 8009   6.474   1.537  10.255  2.6614  0.0132  1.4049
 2190SOL     OW 8010   0.647   5.417   7.189  0.0081 -0.6786 -0.2074
 2190SOL    HW1 8011   0.593   5.479   7.141  0.7685 -0.4117 -0.7471
 2190SOL    HW2 8012   0.726   5.467   7.210 -1.3893  0.1633  3.8707
 2191SOL     OW 8013   0.997   6.631  11.679 -0.3563 -0.1104  0.1506
 2191SOL    HW1 8014   0.927   6.567  11.697  1.2345 -1.6831  1.1118
 2191SOL    HW2 8015   1.077   6.579  11.682  0.9622  1.8571  0.2856
 2192SOL     OW 8016   6.715   1.211   2.991 -0.0101 -0.7854  0.3952
 2192SOL    HW1 8017   6.810   1.212   2.978 -0.0368 -0.4012  0.2075
 2192SOL    HW2 8018   6.703   1.167   3.075  0.2423 -2.2639 -0.3125
 2193SOL     OW 8019   2.964   6.408   9.208  0.0843  0.2223 -0.2728
 2193SOL    HW1 8020   3.010   6.390   9.126 -0.1812 -0.4908 -0.2703
 2193SOL    HW2 8021   2.878   6.441   9.180 -1.0726 -2.5679 -0.3725
 2194SOL     OW 8022   6.022   0.828   1.981 -0.4127 -0.8220  0.4427
 2194SOL    HW1 8023   6.023   0.915   1.940 -0.2247 -0.5149  1.0902
 2194SOL    HW2 8024   6.100   0.827   2.037 -0.3184 -1.4737  0.3053
 2195SOL     OW 8025   1.537   1.008   1.034 -0.0871 -0.0787 -0.7531
 2195SOL    HW1 8026   1.492   1.045   0.958  1.1625  1.9291 -0.5744
 2195SOL    HW2 8027   1.495   0.923   1.048 -2.7196  1.0085 -1.5374
 2196SOL     OW 8028   7.723   5.852   6.503  0.4296  0.0320  0.1362
 2196SOL    HW1 8029   7.667   5.815   6.571  0.6676 -2.5377 -0.9407
 2196SOL    HW2 8030   7.810   5.814   6.519  0.5685 -0.3785 -1.3638
 2197SOL     OW 8031   2.659   5.640   4.580  0.2872 -0.1622 -0.0279
 2197SOL    HW1 8032   2.566   5.620   4.581  0.1878  0.3242  0.3433
 2197SOL    HW2 8033   2.671   5.707   4.646  0.7396  0.5067 -0.7671
 2198SOL     OW 8034   0.082   7.448   7.526 -0.0794  0.2489  0.3879
 2198SOL    HW1 8035   0.030   7.527   7.513 -0.3004  0.0336 -0.0367
 2198SOL    HW2 8036   0.154   7.476   7.584 -0.3588  0.6705  0.5345
 2199SOL     OW 8037   6.967   0.526   4.936 -0.6861  0.1502  0.0469
 2199SOL    HW1 8038   6.939   0.616   4.951  0.0290  0.3191  0.3857
 2199SOL    HW2 8039   7.042   0.514   4.993 -0.9361 -0.7505  0.2105
 2200SOL     OW 8040   6.106   5.242   4.498 -0.4051 -0.4066  0.0776
 2200SOL    HW1 8041   6.078   5.333   4.488 -0.2582 -0.4202 -0.5227
 2200SOL    HW2 8042   6.056   5.209   4.573 -2.6506 -0.6530 -1.4117
 2201SOL     OW 8043   0.114   0.479   9.637 -0.1909 -0.4365 -0.5471
 2201SOL    HW1 8044   0.080   0.407   9.690 -2.7839 -0.2907 -1.8707
 2201SOL    HW2 8045   0.048   0.548   9.644 -0.0313  0.0344 -2.9443
 2202SOL     OW 8046   2.293   2.550   7.312 -0.4064  0.1482  0.4282
 2202SOL    HW1 8047   2.342   2.468   7.311  1.1930  1.0666 -0.1176
 2202SOL    HW2 8048   2.242   2.549   7.231  0.2743  0.0819 -0.0010
 2203SOL     OW 8049   6.102   1.304  10.542 -0.6348  0.0580  0.2772
 2203SOL    HW1 8050   6.105   1.234  10.477  0.1744  0.5708 -0.2561
 2203SOL    HW2 8051   6.163   1.275  10.611 -1.2922 -0.3610  0.6940
 2204SOL     OW 8052   2.028   2.626   1.352 -0.9170 -0.3161 -0.1472
 2204SOL    HW1 8053   2.057   2.569   1.282 -0.0020  0.8934 -0.8035
 2204SOL    HW2 8054   2.056   2.582   1.432  2.0170  0.2978 -0.7152
 2205SOL     OW 8055   2.240   6.430   0.519 -0.1680  0.0765  0.3906
 2205SOL    HW1 8056   2.329   6.420   0.552 -0.3559  1.0089  1.2626
 2205SOL    HW2 8057   2.251   6.468   0.432  0.3233 -1.8090 -0.4043
 2206SOL     OW 8058   6.776   0.890   7.587  0.2328  0.5734 -0.5927
 2206SOL    HW1 8059   6.799   0.891   7.679 -1.3968  0.9930 -0.1571
 2206SOL    HW2 8060   6.694   0.940   7.582 -0.4990 -0.6915 -2.0460
 2207SOL     OW 8061   5.512   6.632  10.776 -0.0471 -0.2165  0.4314
 2207SOL    HW1 8062   5.581   6.695  10.755  1.1657 -0.7583  2.5508
 2207SOL    HW2 8063   5.547   6.549  10.743  1.5134 -0.9286  3.5168
 2208SOL     OW 8064   4.639   7.794   5.022 -0.4509  0.4665 -0.5693
 2208SOL    HW1 8065   4.570   7.793   4.956 -2.2179 -2.7908  1.0621
 2208SOL    HW2 8066   4.596   7.824   5.102  0.1701 -0.8017  0.2864
 2209SOL     OW 8067   6.666   5.899   8.815 -0.8886  0.8280 -0.0910
 2209SOL    HW1 8068   6.749   5.945   8.804 -0.0332 -1.0364 -2.0824
 2209SOL    HW2 8069   6.635   5.926   8.902  2.0909  1.1018  1.0013
 2210SOL     OW 8070   1.824   6.205   7.778 -0.0392  0.1388  0.2987
 2210SOL    HW1 8071   1.742   6.163   7.751  1.4045 -1.5341 -1.7928
 2210SOL    HW2 8072   1.830   6.284   7.724 -0.4486  0.4714  0.7356
 2211SOL     OW 8073   5.160   4.622  10.783  0.1272  0.0383 -0.3011
 2211SOL    HW1 8074   5.173   4.529  10.768 -0.8168  0.0069 -0.9751
 2211SOL    HW2 8075   5.179   4.663  10.699  0.2430  0.4317 -0.0880
 2212SOL     OW 8076   5.340   4.441   9.387 -0.2119  1.0723  0.3596
 2212SOL    HW1 8077   5.360   4.420   9.295  0.1565  2.8108  0.0025
 2212SOL    HW2 8078   5.411   4.399   9.436 -1.3980 -1.4559  0.0927
 2213SOL     OW 8079   4.809   4.601   8.417  1.0116  0.7105  0.4711
 2213SOL    HW1 8080   4.837   4.645   8.337 -1.8332 -0.2617 -1.1883
 2213SOL    HW2 8081   4.738   4.655   8.451 -0.9229 -1.1947 -0.2936
 2214SOL     OW 8082   3.896   1.377   2.320 -0.1824 -0.6127  0.2624
 2214SOL    HW1 8083   3.821   1.320   2.341 -1.1258  0.4642 -0.1133
 2214SOL    HW2 8084   3.962   1.353   2.385 -1.8205  0.2796  2.3686
 2215SOL     OW 8085   0.445   7.299  11.493 -0.5723 -0.1859 -0.4072
 2215SOL    HW1 8086   0.462   7.343  11.411 -0.3661  0.3209 -0.0953
 2215SOL    HW2 8087   0.531   7.279  11.529 -0.6300 -1.9376 -1.1015
 2216SOL     OW 8088   7.091   1.236   8.385 -0.6851  0.2989 -0.1650
 2216SOL    HW1 8089   7.071   1.312   8.331 -0.5783  0.8617  0.5792
 2216SOL    HW2 8090   7.006   1.204   8.414 -0.7108  0.3604 -0.1727
 2217SOL     OW 8091   7.768   1.223   8.319  0.1211 -0.2251  0.4467
 2217SOL    HW1 8092   7.860   1.249   8.315  0.3131 -0.7926  1.0142
 2217SOL    HW2 8093   7.761   1.150   8.258  0.3870 -1.1298  1.4635
 2218SOL     OW 8094   2.099   4.038   3.004  0.0506  0.0140  0.0147
 2218SOL    HW1 8095   2.141   4.109   3.053 -0.5368  0.6664 -0.4073
 2218SOL    HW2 8096   2.018   4.021   3.052  0.3062 -0.5507  0.2560
 2219SOL     OW 8097   7.925   6.515   8.460 -0.5569  0.6138 -0.8543
 2219SOL    HW1 8098   7.970   6.596   8.483 -0.7978  0.9973 -1.7278
 2219SOL    HW2 8099   7.838   6.543   8.431 -0.8968 -0.0180 -0.4733
 2220SOL     OW 8100   5.106   1.391   3.448 -0.7473 -0.4904 -0.4882
 2220SOL    HW1 8101   5.193   1.353   3.454  0.0503  1.2436 -0.6092
 2220SOL    HW2 8102   5.087   1.421   3.537 -0.6685  0.2695 -0.7193
 2221SOL     OW 8103   6.291   2.011  10.526  0.6916  0.2666 -0.1862
 2221SOL    HW1 8104   6.239   1.981  10.452 -0.0041  0.0223  0.3969
 2221SOL    HW2 8105   6.232   2.006  10.602  1.6158 -0.2163  0.5213
 2222SOL     OW 8106   1.973   7.141   2.838 -0.1931  0.2337 -0.8303
 2222SOL    HW1 8107   1.967   7.048   2.862  0.7792 -0.1600 -2.0208
 2222SOL    HW2 8108   1.910   7.184   2.896 -1.3839 -1.2956 -0.8995
 2223SOL     OW 8109   7.136   1.137   9.225 -0.0735  0.3563 -0.2476
 2223SOL    HW1 8110   7.102   1.090   9.301  0.7605  0.0902 -0.0366
 2223SOL    HW2 8111   7.207   1.082   9.192 -0.8345  0.1386 -1.6165
 2224SOL     OW 8112   5.412   7.010   1.936  0.0161  0.0262  0.4456
 2224SOL    HW1 8113   5.445   6.985   2.022 -0.6799  0.1983  0.7668
 2224SOL    HW2 8114   5.337   6.952   1.921  0.9138 -0.8851 -0.6122
 2225SOL     OW 8115   7.223   2.703   4.135 -0.1924  0.5665 -0.1129
 2225SOL    HW1 8116   7.309   2.707   4.177  0.5885 -0.1042 -1.5664
 2225SOL    HW2 8117   7.237   2.742   4.049 -1.9056  2.5497  0.4317
 2226SOL     OW 8118   0.188   7.852  11.548 -0.1649  0.1664 -0.1301
 2226SOL    HW1 8119   0.162   7.866  11.639 -1.5484  1.3966 -0.6612
 2226SOL    HW2 8120   0.212   7.939  11.516  2.5181 -0.5718 -0.3560
 2227SOL     OW 8121   5.706   5.020   0.143 -0.6334  0.0829  0.3478
 2227SOL    HW1 8122   5.785   4.999   0.192  1.7759 -2.3908 -3.9775
 2227SOL    HW2 8123   5.720   5.109   0.111  0.2212 -0.1649  0.0045
 2228SOL     OW 8124   2.377   0.712   9.817 -0.2837 -0.2604  0.1126
 2228SOL    HW1 8125   2.452   0.674   9.863 -1.2140 -0.2596  1.6652
 2228SOL    HW2 8126   2.364   0.655   9.741  2.0359  0.4393 -0.9315
 2229SOL     OW 8127   5.074   7.631   1.466 -0.2816  0.2577 -0.4389
 2229SOL    HW1 8128   4.984   7.655   1.487 -0.0451 -0.2324  1.2427
 2229SOL    HW2 8129   5.095   7.683   1.388 -1.5851  1.3535 -0.0982
 2230SOL     OW 8130   6.196   0.244   6.613 -0.2223  0.1443  0.4513
 2230SOL    HW1 8131   6.143   0.175   6.574  0.3675 -0.0246 -0.0705
 2230SOL    HW2 8132   6.143   0.277   6.686 -0.8270 -0.3455  0.2417
 2231SOL     OW 8133   0.841   2.663  11.313  0.7722  0.3581  0.5726
 2231SOL    HW1 8134   0.782   2.591  11.294  0.3016  0.7393  0.5688
 2231SOL    HW2 8135   0.897   2.630  11.384 -0.1704  0.3730  1.3473
 2232SOL     OW 8136   5.531   0.947   4.046 -0.0618 -0.3976  0.4744
 2232SOL    HW1 8137   5.457   0.915   4.097 -0.5080  0.2362  0.2334
 2232SOL    HW2 8138   5.526   1.042   4.054 -0.5371 -0.2397 -1.2888
 2233SOL     OW 8139   2.089   1.089   7.569  0.3577  0.3451 -0.0036
 2233SOL    HW1 8140   2.035   1.026   7.618  0.8288 -1.4099 -1.6001
 2233SOL    HW2 8141   2.170   1.096   7.620 -0.5389  1.4349  1.3457
 2234SOL     OW 8142   2.627   6.874   7.097 -0.2406 -0.5719  0.4909
 2234SOL    HW1 8143   2.621   6.928   7.018  0.3354  0.3177  1.0400
 2234SOL    HW2 8144   2.597   6.932   7.168  0.2784 -1.0103  1.0747
 2235SOL     OW 8145   3.392   2.374   9.983 -0.5164  0.5681  0.2708
 2235SOL    HW1 8146   3.436   2.443  10.032  0.4168 -1.2872  2.2327
 2235SOL    HW2 8147   3.299   2.388   9.999 -0.3769  1.7855  0.0423
 2236SOL     OW 8148   2.436   1.613   1.111  0.5822  0.3753  0.2876
 2236SOL    HW1 8149   2.382   1.618   1.190 -0.1544 -2.6313  0.1098
 2236SOL    HW2 8150   2.515   1.567   1.140  0.9851  0.6066 -0.4248
 2237SOL     OW 8151   3.372   7.820   9.843  0.0497  0.3950 -0.4573
 2237SOL    HW1 8152   3.423   7.815   9.924 -1.1458 -0.3300  0.2922
 2237SOL    HW2 8153   3.417   7.884   9.789  1.3867  0.2206  0.4208
 2238SOL     OW 8154   2.316   7.851  10.523  0.0188  0.1526  0.3329
 2238SOL    HW1 8155   2.329   7.771  10.472  1.5680  0.4333  0.2447
 2238SOL    HW2 8156   2.401   7.869  10.562 -0.5414  1.2652  1.1024
 2239SOL     OW 8157   6.762   3.828   3.522 -0.2365 -0.8515  0.3455
 2239SOL    HW1 8158   6.690   3.799   3.467 -0.9141  0.0323  0.7237
 2239SOL    HW2 8159   6.759   3.769   3.598 -1.2300 -0.2140  0.8383
 2240SOL     OW 8160   2.449   5.043   9.229  0.6917 -0.2648  0.4599
 2240SOL    HW1 8161   2.395   4.983   9.281  1.1068 -0.9844  0.0628
 2240SOL    HW2 8162   2.490   4.988   9.163  1.0613  0.4636  0.0710
 2241SOL     OW 8163   2.982   2.121   6.854  0.3877 -0.6686  0.3081
 2241SOL    HW1 8164   2.895   2.161   6.860 -0.2517 -1.8481 -0.7494
 2241SOL    HW2 8165   3.039   2.182   6.901 -0.6718  1.0796 -0.5621
 2242SOL     OW 8166   4.479   3.198   8.020 -0.0823  0.0186 -0.2344
 2242SOL    HW1 8167   4.460   3.112   7.981 -2.6269  0.9387 -1.1921
 2242SOL    HW2 8168   4.439   3.194   8.107  0.4616  0.0005  0.0202
 2243SOL     OW 8169   0.209   2.811   5.701 -0.2546  0.4332 -0.4689
 2243SOL    HW1 8170   0.244   2.765   5.625 -0.6127  0.4177 -0.6237
 2243SOL    HW2 8171   0.132   2.857   5.669 -2.3754 -2.1671  0.5570
 2244SOL     OW 8172   2.130   5.802   4.815  0.2919 -0.1281  0.4507
 2244SOL    HW1 8173   2.197   5.778   4.751 -0.6922 -0.9399 -0.2875
 2244SOL    HW2 8174   2.065   5.731   4.810  1.5318 -1.8357  4.3385
 2245SOL     OW 8175   7.030   7.100   1.985  0.2871  0.3990 -0.1943
 2245SOL    HW1 8176   7.097   7.168   1.974 -1.2655  2.0733  0.2477
 2245SOL    HW2 8177   6.953   7.147   2.017 -1.5886 -1.2247 -2.0834
 2246SOL     OW 8178   0.008   3.162   1.950 -0.0930  0.6312  0.5623
 2246SOL    HW1 8179  -0.075   3.210   1.950 -1.5349 -1.6545  0.4610
 2246SOL    HW2 8180   0.070   3.220   1.993 -1.3558  3.0270 -0.6576
 2247SOL     OW 8181   0.316   2.543   2.598 -0.1029 -0.5044  0.5158
 2247SOL    HW1 8182   0.368   2.578   2.671  1.3580 -0.8067 -0.3338
 2247SOL    HW2 8183   0.357   2.459   2.578  0.1577 -0.0122 -1.2535
 2248SOL     OW 8184   4.253   1.235  12.013  0.2664 -0.2199  0.0548
 2248SOL    HW1 8185   4.163   1.265  12.005  0.3664  0.5545  1.4879
 2248SOL    HW2 8186   4.268   1.182  11.935 -1.5223 -0.6347 -0.0389
 2249SOL     OW 8187   3.439   7.377   5.526 -0.3478  0.2159  0.4130
 2249SOL    HW1 8188   3.454   7.285   5.507  0.0450  0.4524 -0.4866
 2249SOL    HW2 8189   3.499   7.398   5.597  1.7938  0.4987 -1.3830
 2250SOL     OW 8190   2.261   0.929   9.950 -0.6864 -0.6835 -0.0635
 2250SOL    HW1 8191   2.250   0.858   9.887  1.4669 -0.3555 -0.9027
 2250SOL    HW2 8192   2.255   1.008   9.898 -2.2626 -0.2263  0.7408
 2251SOL     OW 8193   6.887   1.277  10.336 -0.0661  0.2818 -0.5006
 2251SOL    HW1 8194   6.957   1.337  10.312 -0.6007  1.1430  0.0711
 2251SOL    HW2 8195   6.818   1.293  10.273 -0.0625 -0.0134 -0.5827
 2252SOL     OW 8196   6.419   3.026  11.746 -0.2644 -0.5892  0.3336
 2252SOL    HW1 8197   6.482   3.024  11.818  0.8935  0.5301 -0.5940
 2252SOL    HW2 8198   6.414   3.118  11.721  0.3656 -1.0811 -1.8405
 2253SOL     OW 8199   4.677   2.137   3.690  0.2557 -0.4895 -0.2208
 2253SOL    HW1 8200   4.726   2.058   3.713 -2.0391 -1.9668 -0.1614
 2253SOL    HW2 8201   4.710   2.163   3.604  2.6272 -0.1177  0.7209
 2254SOL     OW 8202   6.839   1.501   0.624  0.1567  0.2820  0.2847
 2254SOL    HW1 8203   6.917   1.477   0.575 -0.2110 -0.3246 -0.0166
 2254SOL    HW2 8204   6.776   1.530   0.558 -0.0605  0.2460  0.4722
 2255SOL     OW 8205   0.633   3.075   2.648  0.4077  0.1557  0.1011
 2255SOL    HW1 8206   0.568   3.129   2.693 -0.5084  0.1442 -1.1302
 2255SOL    HW2 8207   0.701   3.137   2.622 -0.0966  0.5457 -0.3320
 2256SOL     OW 8208   7.435   1.667   5.586 -0.1157  0.1993  0.2908
 2256SOL    HW1 8209   7.456   1.717   5.507  0.0074  0.1586  0.2975
 2256SOL    HW2 8210   7.344   1.641   5.575 -0.0275 -0.0157  0.0464
 2257SOL     OW 8211   6.316   3.107  10.622  0.7055 -0.8566  0.2025
 2257SOL    HW1 8212   6.293   3.084  10.712 -0.2402 -3.4523 -0.6021
 2257SOL    HW2 8213   6.411   3.111  10.621  0.8740 -3.2147  0.8893
 2258SOL     OW 8214   2.683   2.427   0.907 -0.3943 -0.5014 -0.1068
 2258SOL    HW1 8215   2.703   2.472   0.990  3.1059  0.6768 -1.3930
 2258SOL    HW2 8216   2.696   2.334   0.927  1.7575 -0.1435  0.4699
 2259SOL     OW 8217   2.575   5.368   6.862 -0.2755 -0.1655 -0.0826
 2259SOL    HW1 8218   2.618   5.287   6.890  0.5696 -0.0365 -0.9542
 2259SOL    HW2 8219   2.647   5.428   6.842 -0.8637  1.2674  1.7692
 2260SOL     OW 8220   0.440   5.559   5.339  0.1509 -0.3239  0.4170
 2260SOL    HW1 8221   0.357   5.594   5.304  0.6845  1.8775  1.2307
 2260SOL    HW2 8222   0.489   5.533   5.261 -1.1762 -1.4629 -0.0920
 2261SOL     OW 8223   5.986   7.368   0.535 -0.2335  0.3361  0.1634
 2261SOL    HW1 8224   5.952   7.278   0.540 -1.4428  0.7637  0.1219
 2261SOL    HW2 8225   6.005   7.391   0.626 -0.4128  0.2014  0.2368
 2262SOL     OW 8226   7.767   3.177   3.653 -0.2147 -0.1459  0.1238
 2262SOL    HW1 8227   7.827   3.188   3.580 -0.8838  1.3408 -0.2397
 2262SOL    HW2 8228   7.820   3.138   3.723  0.6812 -0.6042 -0.8016
 2263SOL     OW 8229   2.857   4.722  10.190  0.2308 -0.7661 -0.2966
 2263SOL    HW1 8230   2.938   4.731  10.140  1.0365  1.4340  1.2370
 2263SOL    HW2 8231   2.880   4.666  10.264  0.8950  1.1580  1.0282
 2264SOL     OW 8232   7.197   6.075   8.674 -0.6127  0.4426  0.1495
 2264SOL    HW1 8233   7.223   5.992   8.635  1.7862  1.1585  0.0696
 2264SOL    HW2 8234   7.271   6.100   8.729 -1.7398  2.0005  1.0320
 2265SOL     OW 8235   1.618   5.938   3.234 -0.5472 -0.5194 -0.6539
 2265SOL    HW1 8236   1.641   5.981   3.316 -1.4487 -0.5153 -0.3900
 2265SOL    HW2 8237   1.531   5.901   3.250 -1.4785  0.8859 -2.1174
 2266SOL     OW 8238   6.802   7.495   7.231 -0.3816  0.5933  0.4049
 2266SOL    HW1 8239   6.856   7.544   7.168  1.0698  1.2318  2.0550
 2266SOL    HW2 8240   6.718   7.485   7.188  0.1101  2.2657 -1.0662
 2267SOL     OW 8241   2.780   6.120   9.842  0.2424 -0.5850 -0.1231
 2267SOL    HW1 8242   2.798   6.207   9.808  1.2606  0.3152  2.4579
 2267SOL    HW2 8243   2.692   6.099   9.811 -0.6775  2.0533  0.4733
 2268SOL     OW 8244   3.167   0.926  10.183 -0.0315  0.4026  0.1711
 2268SOL    HW1 8245   3.221   0.973  10.247  0.2517 -0.9375  0.9611
 2268SOL    HW2 8246   3.080   0.925  10.222  0.4404 -1.7000  1.3329
 2269SOL     OW 8247   5.351   2.673  11.653 -0.2490  0.6000 -0.3467
 2269SOL    HW1 8248   5.276   2.727  11.680 -0.5143 -0.0172  0.1723
 2269SOL    HW2 8249   5.334   2.654  11.561 -1.7364 -1.1060  0.2270
 2270SOL     OW 8250   4.307   7.718   3.271 -0.1739  0.1393 -0.1847
 2270SOL    HW1 8251   4.304   7.761   3.357  0.2747  0.1216 -0.1591
 2270SOL    HW2 8252   4.236   7.759   3.221  0.2824  0.9397 -0.1797
 2271SOL     OW 8253   7.508   6.732   1.448 -0.0493  0.3323  0.4573
 2271SOL    HW1 8254   7.566   6.764   1.379 -0.1195  1.7465  1.0054
 2271SOL    HW2 8255   7.475   6.648   1.416  1.8715 -0.2474 -0.1032
 2272SOL     OW 8256   0.382   5.455   9.670 -0.5489  0.0528 -0.6206
 2272SOL    HW1 8257   0.424   5.463   9.584 -0.0980 -1.6139 -0.6078
 2272SOL    HW2 8258   0.455   5.455   9.732 -0.7198 -0.6337 -0.4096
 2273SOL     OW 8259   5.229   3.260  11.454  0.1578 -0.4535 -0.3812
 2273SOL    HW1 8260   5.204   3.222  11.538 -0.3649  1.2116  0.2482
 2273SOL    HW2 8261   5.254   3.185  11.400 -0.3641 -1.6249  0.9595
 2274SOL     OW 8262   6.912   1.177  11.545  0.5063  0.1402  0.2497
 2274SOL    HW1 8263   6.822   1.147  11.527  0.2565  1.2060 -0.3985
 2274SOL    HW2 8264   6.928   1.151  11.635  0.7597 -2.9635 -0.5788
 2275SOL     OW 8265   0.994   5.305   4.256 -0.1101 -0.4558  0.1471
 2275SOL    HW1 8266   1.016   5.391   4.221  1.0979 -0.8391 -0.0850
 2275SOL    HW2 8267   1.067   5.249   4.230 -1.1141 -1.6824 -0.1575
 2276SOL     OW 8268   0.645   0.557   2.382  0.0641 -0.0256  0.6836
 2276SOL    HW1 8269   0.724   0.534   2.334 -0.6328 -0.8963 -0.0685
 2276SOL    HW2 8270   0.623   0.646   2.352 -0.7147 -0.7917 -1.1267
 2277SOL     OW 8271   7.707   4.150  10.885  0.2537  0.0074 -0.2799
 2277SOL    HW1 8272   7.789   4.102  10.891  0.5903  0.6730  0.7260
 2277SOL    HW2 8273   7.712   4.196  10.801  1.7041  1.4031  0.5167
 2278SOL     OW 8274   0.517   1.644  10.848 -0.3178 -0.8122  0.1178
 2278SOL    HW1 8275   0.561   1.585  10.909 -1.0010 -1.2530  0.1902
 2278SOL    HW2 8276   0.440   1.596  10.819 -0.5622 -0.1904 -0.2857
 2279SOL     OW 8277   0.898   2.471   1.645  0.2224 -0.3142 -0.3602
 2279SOL    HW1 8278   0.883   2.380   1.670 -2.2871 -0.0912 -0.7533
 2279SOL    HW2 8279   0.911   2.469   1.550 -1.9528 -0.1540 -0.7227
 2280SOL     OW 8280   5.459   2.450   6.307 -0.6980 -0.2809  0.0174
 2280SOL    HW1 8281   5.526   2.470   6.372  1.7728  2.4641 -3.0011
 2280SOL    HW2 8282   5.396   2.522   6.314  1.4876  2.1676 -2.6312
 2281SOL     OW 8283   2.901   2.903   4.469  0.0491  0.3563  0.1282
 2281SOL    HW1 8284   2.818   2.916   4.423 -0.6548  0.2222  1.2961
 2281SOL    HW2 8285   2.918   2.987   4.511  0.7004  0.4900 -0.3926
 2282SOL     OW 8286   0.136   7.639  11.771  0.7339 -0.4489  0.0158
 2282SOL    HW1 8287   0.073   7.600  11.710  1.6203  0.3034 -1.4242
 2282SOL    HW2 8288   0.195   7.567  11.794  1.4217 -0.3619 -1.3970
 2283SOL     OW 8289   3.750   2.807   6.724  0.1105 -0.1024  0.1627
 2283SOL    HW1 8290   3.700   2.794   6.805 -0.5169  0.1997 -0.1738
 2283SOL    HW2 8291   3.688   2.791   6.654  0.3597  0.7252 -0.2630
 2284SOL     OW 8292   2.495   2.365   2.413  0.0855 -0.3854 -0.2343
 2284SOL    HW1 8293   2.569   2.359   2.474  0.6951  1.2208 -0.7394
 2284SOL    HW2 8294   2.493   2.458   2.388 -1.2801 -0.6607 -1.2556
 2285SOL     OW 8295   3.595   5.805  11.531 -0.1542  0.2879 -0.4824
 2285SOL    HW1 8296   3.516   5.778  11.483  0.2232 -0.2212 -0.8309
 2285SOL    HW2 8297   3.638   5.868  11.473  0.6643 -0.8479 -1.1559
 2286SOL     OW 8298   6.596   1.652   3.575 -0.1614  0.3276  0.4293
 2286SOL    HW1 8299   6.656   1.602   3.521 -0.6255 -1.2573  1.3237
 2286SOL    HW2 8300   6.650   1.683   3.648 -0.1847 -0.1279  0.6415
 2287SOL     OW 8301   5.538   0.389  12.140 -0.0581  0.0257 -0.4514
 2287SOL    HW1 8302   5.513   0.356  12.053 -1.8832 -0.3202  0.1664
 2287SOL    HW2 8303   5.494   0.331  12.202  0.2063  1.0154  0.7012
 2288SOL     OW 8304   2.266   2.074  11.165 -0.2293  0.1140 -0.6530
 2288SOL    HW1 8305   2.191   2.084  11.107 -0.5765  0.9492 -0.0831
 2288SOL    HW2 8306   2.336   2.040  11.109 -0.8740 -0.1705 -1.3024
 2289SOL     OW 8307   6.220   1.898   0.468  0.4737  0.2146  0.3046
 2289SOL    HW1 8308   6.286   1.939   0.412  1.9534  0.3347  2.0528
 2289SOL    HW2 8309   6.208   1.810   0.431  0.3501  0.7532 -0.9997
 2290SOL     OW 8310   0.061   6.933  10.332  0.4237  0.1035  0.2079
 2290SOL    HW1 8311   0.004   6.987  10.279  0.3761 -0.9221 -0.8195
 2290SOL    HW2 8312   0.132   6.907  10.273 -0.6716 -2.7167 -0.0419
 2291SOL     OW 8313   7.230   5.777   5.329 -0.1929  0.7576 -0.0434
 2291SOL    HW1 8314   7.304   5.830   5.359  0.7515  0.0373 -1.0107
 2291SOL    HW2 8315   7.259   5.742   5.244 -0.6232 -1.5810  0.7042
 2292SOL     OW 8316   7.591   5.364   6.062  0.1321  0.0776 -0.0830
 2292SOL    HW1 8317   7.679   5.361   6.100  0.7156  0.7214 -1.3299
 2292SOL    HW2 8318   7.606   5.362   5.967 -1.2295 -0.3837 -0.3115
 2293SOL     OW 8319   2.960   6.464   1.640  0.3125 -0.5304 -0.4086
 2293SOL    HW1 8320   2.931   6.399   1.576 -0.6020 -0.3849 -0.1650
 2293SOL    HW2 8321   2.947   6.420   1.725  0.4303 -0.3079 -0.2743
 2294SOL     OW 8322   5.585   1.600   3.041 -0.4044 -0.5455  0.6289
 2294SOL    HW1 8323   5.500   1.643   3.051  0.5827  1.3239  1.4999
 2294SOL    HW2 8324   5.618   1.631   2.957 -0.3002 -0.7849  0.5792
 2295SOL     OW 8325   2.617   4.782   7.398 -0.3344 -0.2088  0.3989
 2295SOL    HW1 8326   2.630   4.765   7.304  0.6527 -0.0442  0.4966
 2295SOL    HW2 8327   2.616   4.695   7.438  0.3211 -0.2456  0.3565
 2296SOL     OW 8328   0.143   1.820   1.083  0.1652 -0.6789  0.4602
 2296SOL    HW1 8329   0.123   1.807   0.991  1.1665 -0.2816  0.1674
 2296SOL    HW2 8330   0.234   1.790   1.092  1.0008  1.6752  0.7257
 2297SOL     OW 8331   7.058   5.097   7.636  0.1316  0.1416 -0.7370
 2297SOL    HW1 8332   7.034   5.180   7.678 -0.7290  0.2601 -1.4131
 2297SOL    HW2 8333   7.132   5.064   7.687 -1.0813  0.0877  1.1129
 2298SOL     OW 8334   2.544   3.434   0.064 -0.1998  0.4426  0.5848
 2298SOL    HW1 8335   2.578   3.430   0.153 -3.2078 -0.7874  1.8234
 2298SOL    HW2 8336   2.529   3.528   0.049  0.9600  0.7252  1.0934
 2299SOL     OW 8337   3.406   0.770   4.962  0.3753  0.1601  0.2409
 2299SOL    HW1 8338   3.328   0.811   4.925 -1.2728 -2.2124  0.7861
 2299SOL    HW2 8339   3.414   0.806   5.050 -0.4036  0.0911  0.3427
 2300SOL     OW 8340   7.125   5.342   4.487  0.3632  0.7753  0.4214
 2300SOL    HW1 8341   7.186   5.285   4.534  1.1148  0.3869 -0.9668
 2300SOL    HW2 8342   7.175   5.422   4.472  0.4563  0.5518 -0.4984
 2301SOL     OW 8343   0.634   6.697   8.996 -0.1860 -0.2062  0.5378
 2301SOL    HW1 8344   0.652   6.743   8.913  0.1298 -3.7696 -1.5540
 2301SOL    HW2 8345   0.544   6.666   8.988  0.2218 -1.5690  0.9813
 2302SOL     OW 8346   4.802   7.826   9.821 -0.5215 -0.4681  0.3280
 2302SOL    HW1 8347   4.781   7.733   9.826 -2.8480 -0.1680 -1.6572
 2302SOL    HW2 8348   4.887   7.829   9.777 -0.6054 -1.6434  0.0434
 2303SOL     OW 8349   5.735   6.869   6.945 -0.9513 -0.5540  0.3398
 2303SOL    HW1 8350   5.777   6.784   6.962 -2.3424 -1.1024  1.2200
 2303SOL    HW2 8351   5.693   6.858   6.860  0.4171 -0.0889 -0.4247
 2304SOL     OW 8352   4.782   0.616   8.776  0.0793 -0.3064 -0.0292
 2304SOL    HW1 8353   4.768   0.676   8.703  2.1333  1.8768  1.2421
 2304SOL    HW2 8354   4.788   0.672   8.853  0.8105 -2.2645  1.4334
 2305SOL     OW 8355   4.261   1.170   0.381 -0.3269 -0.4109 -0.3132
 2305SOL    HW1 8356   4.307   1.214   0.310  1.7306  0.4991  1.5040
 2305SOL    HW2 8357   4.181   1.221   0.393 -0.3578 -0.1546 -1.4842
 2306SOL     OW 8358   4.496   1.000  10.608 -0.0394  0.3211  0.2007
 2306SOL    HW1 8359   4.555   0.943  10.657 -2.1530 -1.5533  0.7443
 2306SOL    HW2 8360   4.484   0.956  10.524 -1.0643  0.3755  0.3084
 2307SOL     OW 8361   4.853   0.169  10.738 -0.8011  0.3403  0.7556
 2307SOL    HW1 8362   4.903   0.184  10.818  2.1754  0.2011 -0.9348
 2307SOL    HW2 8363   4.915   0.187  10.667 -2.4495 -2.1104 -1.5135
 2308SOL     OW 8364   3.840   5.527  11.018  0.1957  0.2016  0.5951
 2308SOL    HW1 8365   3.799   5.527  11.104  0.9934  1.3164  0.9907
 2308SOL    HW2 8366   3.770   5.554  10.958 -0.7572 -1.9691  0.6566
 2309SOL     OW 8367   1.794   4.175   9.738  0.1493 -0.1316  0.5860
 2309SOL    HW1 8368   1.875   4.141   9.700 -0.4210 -0.5780 -0.2524
 2309SOL    HW2 8369   1.819   4.259   9.776  1.1469 -0.5674  0.9167
 2310SOL     OW 8370   7.694   6.013   9.699  0.0372  0.1676 -0.0465
 2310SOL    HW1 8371   7.610   5.969   9.683  1.3697 -2.3028 -0.7237
 2310SOL    HW2 8372   7.698   6.023   9.794 -0.0349 -1.8688  0.2086
 2311SOL     OW 8373   3.416   1.993   7.334  0.0367  0.1714  0.7093
 2311SOL    HW1 8374   3.335   2.031   7.302 -0.6112  0.2791  2.3952
 2311SOL    HW2 8375   3.474   2.067   7.350  1.0426  0.0283 -1.8123
 2312SOL     OW 8376   5.830   3.663   8.009 -0.1989 -0.1056  0.1821
 2312SOL    HW1 8377   5.753   3.641   8.061 -0.6931 -0.1255 -0.5533
 2312SOL    HW2 8378   5.814   3.623   7.924  0.2415  0.5956 -0.2387
 2313SOL     OW 8379   7.149   1.234  11.040  0.0969  0.2558  0.4285
 2313SOL    HW1 8380   7.202   1.288  11.099  0.1737  0.2900  0.3298
 2313SOL    HW2 8381   7.194   1.241  10.955  1.2268 -1.5243  0.8156
 2314SOL     OW 8382   1.331   7.073  11.883 -0.1573  0.3139  0.2961
 2314SOL    HW1 8383   1.402   7.009  11.890  0.6879  0.9062 -1.9875
 2314SOL    HW2 8384   1.274   7.037  11.815 -0.7655  1.0035  0.4353
 2315SOL     OW 8385   0.235   5.556   3.920  0.0043 -0.0437 -0.2472
 2315SOL    HW1 8386   0.224   5.574   3.826 -0.0346 -1.4556 -0.5351
 2315SOL    HW2 8387   0.145   5.555   3.954 -0.1093 -1.2163 -0.5448
 2316SOL     OW 8388   1.250   4.346   1.577  0.2310 -0.0468 -0.4146
 2316SOL    HW1 8389   1.285   4.415   1.520  0.4162  0.4523  0.2850
 2316SOL    HW2 8390   1.159   4.370   1.591  0.1403 -0.2629 -0.6461
 2317SOL     OW 8391   1.180   1.575   4.005  0.6381 -0.2843 -0.1624
 2317SOL    HW1 8392   1.227   1.495   3.981  3.2503  0.9564  0.4793
 2317SOL    HW2 8393   1.233   1.613   4.076 -2.6200  0.0843  2.3094
 2318SOL     OW 8394   2.610   7.716   8.093  0.1007  0.0435 -0.4443
 2318SOL    HW1 8395   2.688   7.678   8.132 -0.1244 -0.6292 -0.6366
 2318SOL    HW2 8396   2.618   7.810   8.110  1.8020  0.2224 -1.9041
 2319SOL     OW 8397   1.504   1.182  10.150 -0.0698 -0.4258 -0.3260
 2319SOL    HW1 8398   1.565   1.209  10.218  0.0066  0.4928 -0.7435
 2319SOL    HW2 8399   1.490   1.261  10.097  0.2175 -1.2224 -1.6426
 2320SOL     OW 8400   1.906   5.140  11.655 -0.6337 -0.0384  0.4121
 2320SOL    HW1 8401   1.905   5.059  11.706 -1.5649 -0.5524 -0.3747
 2320SOL    HW2 8402   1.898   5.110  11.564  0.3591  0.8797  0.0063
 2321SOL     OW 8403   2.900   6.995   8.230 -0.0624 -0.1563 -0.0187
 2321SOL    HW1 8404   2.863   6.917   8.190  0.4850 -0.1738 -0.4925
 2321SOL    HW2 8405   2.973   7.020   8.173  0.7780 -0.2209  0.9921
 2322SOL     OW 8406   6.212   0.002  11.411  0.3772 -0.1693 -0.7905
 2322SOL    HW1 8407   6.229   0.019  11.318 -1.4475 -0.6874 -1.2585
 2322SOL    HW2 8408   6.118   0.022  11.422  0.4759 -0.4830  0.8587
 2323SOL     OW 8409   7.293   0.997   8.533 -1.0534  0.4133  0.3471
 2323SOL    HW1 8410   7.310   1.086   8.563 -0.4679  0.0752  1.0392
 2323SOL    HW2 8411   7.201   0.999   8.504 -0.4467  1.7769 -1.6757
 2324SOL     OW 8412   7.092   5.669   2.553  0.0061  0.0698 -0.0784
 2324SOL    HW1 8413   7.110   5.722   2.476  0.0231 -0.5371 -0.4970
 2324SOL    HW2 8414   7.000   5.688   2.574  0.1508  0.6233  0.0598
 2325SOL     OW 8415   0.953   3.671   8.682 -0.3310  0.2202 -0.3673
 2325SOL    HW1 8416   0.984   3.678   8.592 -0.3334  0.5569 -0.3443
 2325SOL    HW2 8417   1.029   3.696   8.735 -0.3360  0.0425 -0.2759
 2326SOL     OW 8418   0.387   1.817   0.349  0.2353  0.0480 -0.0295
 2326SOL    HW1 8419   0.438   1.753   0.299  0.5106 -0.6776  1.1407
 2326SOL    HW2 8420   0.308   1.832   0.296  0.6274 -0.5028 -0.7913
 2327SOL     OW 8421   4.032   4.189   8.725  0.6485  0.6213 -0.6247
 2327SOL    HW1 8422   3.952   4.138   8.738  0.4002  1.3409  0.8879
 2327SOL    HW2 8423   4.024   4.224   8.636  0.1173 -0.6948 -1.1293
 2328SOL     OW 8424   7.532   4.510  10.474  0.1071  0.0132 -0.0837
 2328SOL    HW1 8425   7.546   4.604  10.463  1.2619 -0.3283 -2.0128
 2328SOL    HW2 8426   7.619   4.476  10.495 -0.2364 -0.6663  0.2632
 2329SOL     OW 8427   0.505   2.254   7.155  0.4982 -0.2463 -0.6779
 2329SOL    HW1 8428   0.586   2.206   7.134  1.5189  1.1613 -0.1351
 2329SOL    HW2 8429   0.458   2.197   7.215  1.5178 -0.7136 -0.2993
 2330SOL     OW 8430   7.369   1.812   9.955  0.3450  0.4173 -0.1233
 2330SOL    HW1 8431   7.274   1.806   9.942  0.4362 -1.4570 -0.2507
 2330SOL    HW2 8432   7.400   1.861   9.879 -0.3948 -0.0933 -0.7794
 2331SOL     OW 8433   7.799   6.822   9.398 -0.2824 -0.3108  0.2964
 2331SOL    HW1 8434   7.801   6.750   9.335  1.9690 -1.7673  1.9224
 2331SOL    HW2 8435   7.890   6.834   9.424 -0.6212  2.8651  0.4658
 2332SOL     OW 8436   6.537   3.106   1.094 -0.3400  0.4008  0.0918
 2332SOL    HW1 8437   6.617   3.082   1.047 -1.4379 -0.2494 -1.5585
 2332SOL    HW2 8438   6.496   3.022   1.113  0.4705  0.5739  3.1191
 2333SOL     OW 8439   5.853   0.427  10.745 -0.2891  0.5377  0.2407
 2333SOL    HW1 8440   5.777   0.389  10.702  0.1855  0.9175 -0.9962
 2333SOL    HW2 8441   5.819   0.466  10.826 -1.3974  0.6744 -0.2743
 2334SOL     OW 8442   5.256   5.775   4.948  0.8160 -0.7427  0.0442
 2334SOL    HW1 8443   5.342   5.763   4.907 -0.0070 -0.0043 -2.0719
 2334SOL    HW2 8444   5.206   5.825   4.883  0.0448  2.5386  2.8991
 2335SOL     OW 8445   5.552   7.472  10.945 -0.3127  0.4931 -0.3343
 2335SOL    HW1 8446   5.544   7.467  10.850 -0.5870  0.1670 -0.2978
 2335SOL    HW2 8447   5.587   7.559  10.962 -0.1546  0.5105 -0.7391
 2336SOL     OW 8448   3.955   3.001  11.384  0.0199  0.0032 -0.0609
 2336SOL    HW1 8449   3.974   2.919  11.338  1.1356  0.2972 -0.1674
 2336SOL    HW2 8450   4.042   3.039  11.402 -0.4534  0.7588  0.7130
 2337SOL     OW 8451   7.387   2.827   4.658 -0.0939  0.6893 -0.6438
 2337SOL    HW1 8452   7.413   2.743   4.620  0.0079  0.6873 -0.5671
 2337SOL    HW2 8453   7.469   2.870   4.681 -0.1603  0.6209 -0.2694
 2338SOL     OW 8454   2.040   3.840   4.073  0.2174 -0.2960 -0.8390
 2338SOL    HW1 8455   1.970   3.899   4.046  0.0139  0.9417  1.9874
 2338SOL    HW2 8456   2.109   3.899   4.106  0.4176 -1.5601  1.1604
 2339SOL     OW 8457   4.573   4.204   1.124 -0.3895  0.2581 -0.3676
 2339SOL    HW1 8458   4.556   4.120   1.081 -1.2415 -0.3175  1.0367
 2339SOL    HW2 8459   4.625   4.181   1.201 -0.8539  0.9854  0.1674
 2340SOL     OW 8460   1.655   3.456   0.190 -0.0003 -0.2067  0.1021
 2340SOL    HW1 8461   1.634   3.547   0.170  2.2491  0.4526  0.5065
 2340SOL    HW2 8462   1.591   3.431   0.257 -1.0418  0.8332 -0.4611
 2341SOL     OW 8463   2.436   2.459  12.358  0.0061  0.0168 -0.5370
 2341SOL    HW1 8464   2.507   2.426  12.412  1.3177  1.2473 -1.4035
 2341SOL    HW2 8465   2.380   2.384  12.342 -0.2076 -0.4756  2.1181
 2342SOL     OW 8466   3.183   4.822   7.912 -0.1288 -0.3838 -0.5169
 2342SOL    HW1 8467   3.121   4.809   7.840  0.5003  0.2100 -1.1740
 2342SOL    HW2 8468   3.248   4.884   7.878  0.3366 -0.3115  0.4639
 2343SOL     OW 8469   6.786   7.702   5.647 -0.1553  0.1774 -0.0874
 2343SOL    HW1 8470   6.800   7.622   5.698  0.8945  0.5010  0.1633
 2343SOL    HW2 8471   6.800   7.773   5.709  0.3887  0.5687 -0.6397
 2344SOL     OW 8472   0.781   4.297   7.814  0.1550  0.1011  0.2272
 2344SOL    HW1 8473   0.782   4.283   7.719 -0.2788 -0.2624  0.2748
 2344SOL    HW2 8474   0.784   4.209   7.851  2.2232  0.2634  0.5867
 2345SOL     OW 8475   2.913   3.445   4.154  0.0079 -0.0149  0.9631
 2345SOL    HW1 8476   2.968   3.408   4.085 -0.2510  0.1939  0.6452
 2345SOL    HW2 8477   2.974   3.462   4.226  0.9395  2.8198 -0.3449
 2346SOL     OW 8478   7.138   7.163   9.644 -0.0996  0.4203 -0.2789
 2346SOL    HW1 8479   7.104   7.241   9.687 -0.2499  0.0242  0.3386
 2346SOL    HW2 8480   7.084   7.154   9.565  0.0461  1.0400 -0.4547
 2347SOL     OW 8481   6.434   1.383   2.191 -0.7042  0.5819  0.1888
 2347SOL    HW1 8482   6.472   1.454   2.242 -1.8260  1.0645  0.3659
 2347SOL    HW2 8483   6.341   1.402   2.187 -0.9109 -0.4467 -0.4593
 2348SOL     OW 8484   1.532   4.446  11.352 -0.2602  0.1924 -0.1436
 2348SOL    HW1 8485   1.549   4.511  11.284  1.6539 -1.2022 -1.0817
 2348SOL    HW2 8486   1.618   4.430  11.392 -0.6507 -1.8023  0.0003
 2349SOL     OW 8487   0.994   5.935   5.641 -0.1670 -0.2521  0.0785
 2349SOL    HW1 8488   1.054   5.890   5.700 -0.0839 -0.6143 -0.2749
 2349SOL    HW2 8489   0.975   5.871   5.573 -0.6990 -0.0256  0.0099
 2350SOL     OW 8490   7.681   0.539   1.614 -0.2279 -0.3995  0.4256
 2350SOL    HW1 8491   7.647   0.541   1.525 -0.4011  1.8200  0.4865
 2350SOL    HW2 8492   7.776   0.533   1.605 -0.1318  1.2894  0.0074
 2351SOL     OW 8493   0.626   2.149   0.612  0.0581  0.0410 -0.0829
 2351SOL    HW1 8494   0.617   2.066   0.567 -0.3471 -0.0117  0.0927
 2351SOL    HW2 8495   0.554   2.150   0.675  0.5659  0.1480  0.5023
 2352SOL     OW 8496   4.979   2.574   6.516 -0.6322  0.0921  0.2137
 2352SOL    HW1 8497   4.971   2.650   6.573 -1.8274  0.2271 -0.1139
 2352SOL    HW2 8498   4.945   2.501   6.568 -0.8076  0.0378  0.0235
 2353SOL     OW 8499   2.637   3.638   0.675 -0.8502 -0.0048  0.1210
 2353SOL    HW1 8500   2.625   3.693   0.597  0.1596  1.5163  0.9891
 2353SOL    HW2 8501   2.724   3.601   0.666 -1.3460 -1.1394 -0.2242
 2354SOL     OW 8502   3.546   3.573   0.791  0.2459  0.0982  0.2902
 2354SOL    HW1 8503   3.482   3.502   0.786  2.0639 -1.5654 -1.6284
 2354SOL    HW2 8504   3.494   3.653   0.792 -1.8805 -1.1908 -0.6961
 2355SOL     OW 8505   4.476   5.665   2.182 -0.1990 -0.3556 -0.1679
 2355SOL    HW1 8506   4.547   5.613   2.144 -0.1305  0.3053 -0.9585
 2355SOL    HW2 8507   4.512   5.753   2.191 -0.3722 -0.3880  1.0060
 2356SOL     OW 8508   2.414   3.944   4.716  0.2036  0.1186  0.4468
 2356SOL    HW1 8509   2.406   3.984   4.629  0.1060 -0.6967  0.0748
 2356SOL    HW2 8510   2.483   3.879   4.706  0.4727  0.3010  1.0908
 2357SOL     OW 8511   7.603   6.381   8.965  0.4010  0.1215  0.2224
 2357SOL    HW1 8512   7.561   6.452   9.014 -1.0247 -0.1945 -0.4967
 2357SOL    HW2 8513   7.605   6.412   8.875 -0.7848 -0.9736 -0.2020
 2358SOL     OW 8514   1.535   1.333  10.856 -0.0222 -0.1137  0.3094
 2358SOL    HW1 8515   1.560   1.424  10.873  1.8110 -0.6820  0.8140
 2358SOL    HW2 8516   1.478   1.309  10.929  0.4107  0.2816  0.7825
 2359SOL     OW 8517   4.459   0.822   0.413 -0.4745  0.0776  0.1230
 2359SOL    HW1 8518   4.532   0.779   0.458 -0.6989 -1.9981 -1.3540
 2359SOL    HW2 8519   4.498   0.862   0.336 -0.4376  1.7471  0.9724
 2360SOL     OW 8520   4.647   6.725   2.491  0.0921  0.0001 -0.2746
 2360SOL    HW1 8521   4.721   6.781   2.468  0.8719 -0.9873 -0.2456
 2360SOL    HW2 8522   4.585   6.784   2.534  0.5460  0.9836 -0.9219
 2361SOL     OW 8523   5.528   4.477   1.556 -0.4266  0.0733 -0.2822
 2361SOL    HW1 8524   5.465   4.539   1.593  0.0991 -0.0534  0.8525
 2361SOL    HW2 8525   5.515   4.396   1.605  1.5058  0.4322  0.8966
 2362SOL     OW 8526   5.328   4.950   9.936 -0.2886 -0.3707  0.1828
 2362SOL    HW1 8527   5.314   4.985  10.024  1.0777 -1.3270  0.8138
 2362SOL    HW2 8528   5.303   5.022   9.877 -0.8200  0.4276  1.3524
 2363SOL     OW 8529   7.925   7.198   5.248  0.0699  0.4872 -0.2018
 2363SOL    HW1 8530   7.854   7.193   5.183 -0.5470 -0.8820  0.5450
 2363SOL    HW2 8531   8.003   7.169   5.201 -0.2110  0.3089 -0.5620
 2364SOL     OW 8532   1.827   4.560  11.721  0.1779 -0.3089  0.4680
 2364SOL    HW1 8533   1.770   4.520  11.656  0.3040  0.8055 -0.3554
 2364SOL    HW2 8534   1.775   4.633  11.755 -0.3269 -1.5062  2.4526
 2365SOL     OW 8535   4.992   6.547   5.099 -0.0142  1.0759 -0.3746
 2365SOL    HW1 8536   4.919   6.506   5.146  0.5232  0.5070 -0.0270
 2365SOL    HW2 8537   4.962   6.551   5.008 -1.3488  2.8142  0.0686
 2366SOL     OW 8538   5.456   7.708   1.590  0.0469 -0.2688 -0.1300
 2366SOL    HW1 8539   5.496   7.795   1.580  0.8155 -0.5040  0.7962
 2366SOL    HW2 8540   5.439   7.680   1.500  0.8391  0.3621 -0.4961
 2367SOL     OW 8541   4.697   0.543  11.542 -0.3032 -0.2490 -0.5408
 2367SOL    HW1 8542   4.724   0.632  11.566 -0.2774  0.1150 -1.8493
 2367SOL    HW2 8543   4.607   0.552  11.513  0.0569 -0.4304 -1.7742
 2368SOL     OW 8544   6.049   0.279   4.463 -0.1824 -0.1065 -0.9474
 2368SOL    HW1 8545   6.111   0.253   4.396  0.9685 -1.1371  0.4611
 2368SOL    HW2 8546   5.995   0.202   4.478 -0.7422  0.2672 -1.0163
 2369SOL     OW 8547   3.319   1.168   4.039 -0.2061  0.5391 -0.1094
 2369SOL    HW1 8548   3.329   1.171   3.944 -2.6549 -0.5507 -0.4638
 2369SOL    HW2 8549   3.311   1.260   4.065 -2.0837  0.7812 -1.3342
 2370SOL     OW 8550   4.033   0.261   9.987  0.0759  0.0841  0.6135
 2370SOL    HW1 8551   4.074   0.178  10.013  2.0502  1.3210  1.6698
 2370SOL    HW2 8552   3.944   0.256  10.024  0.6391 -0.9809  1.9231
 2371SOL     OW 8553   2.530   7.857  11.353  0.2315  0.1613  0.4470
 2371SOL    HW1 8554   2.590   7.835  11.425  1.6653 -0.2013 -0.8103
 2371SOL    HW2 8555   2.576   7.828  11.274 -1.6981 -0.2999 -0.5664
 2372SOL     OW 8556   3.136   0.880   4.569  0.0095  0.5246 -0.2895
 2372SOL    HW1 8557   3.059   0.898   4.622  0.2868 -0.0600  0.3198
 2372SOL    HW2 8558   3.210   0.914   4.619  0.0927  1.8265 -1.2403
 2373SOL     OW 8559   5.941   4.749   6.799 -0.0492 -0.0058 -0.9363
 2373SOL    HW1 8560   5.883   4.824   6.807  0.3854  0.7831 -3.9244
 2373SOL    HW2 8561   6.025   4.786   6.769  0.9001 -1.4733 -0.2412
 2374SOL     OW 8562   2.606   5.404   2.072 -0.1337  0.0193 -0.3684
 2374SOL    HW1 8563   2.527   5.454   2.093 -0.7831 -1.2648  0.3600
 2374SOL    HW2 8564   2.619   5.346   2.147  0.7009 -0.7757 -1.1015
 2375SOL     OW 8565   1.218   6.104  10.588  0.1102 -0.3226  0.3848
 2375SOL    HW1 8566   1.135   6.076  10.628 -0.7282  3.0643  1.3791
 2375SOL    HW2 8567   1.284   6.081  10.653 -0.3591 -0.9804  0.6419
 2376SOL     OW 8568   6.421   5.302  10.491 -0.4428  0.5299 -0.0606
 2376SOL    HW1 8569   6.510   5.332  10.471  0.0466 -0.0125  1.1834
 2376SOL    HW2 8570   6.364   5.371  10.457  0.3182  0.0501 -2.5645
 2377SOL     OW 8571   6.213   0.749   8.177  0.3243 -0.1266  0.2308
 2377SOL    HW1 8572   6.161   0.809   8.123 -0.2251 -0.6077  0.2181
 2377SOL    HW2 8573   6.302   0.755   8.141  0.0477 -0.1382 -0.4768
 2378SOL     OW 8574   3.085   5.688   9.703 -0.1467 -0.7927  0.2365
 2378SOL    HW1 8575   3.105   5.692   9.797 -0.3160  1.9492  0.2436
 2378SOL    HW2 8576   3.019   5.757   9.690  1.7363  0.6806 -2.2876
 2379SOL     OW 8577   3.786   5.690   8.966 -0.7738 -0.2178  0.0637
 2379SOL    HW1 8578   3.699   5.674   8.928  0.1082 -1.8629 -1.4531
 2379SOL    HW2 8579   3.826   5.603   8.970  0.9786  0.5569  0.2884
 2380SOL     OW 8580   1.088   4.406   6.630 -0.3456 -0.0503 -0.8292
 2380SOL    HW1 8581   1.138   4.363   6.699 -0.3343 -2.8018 -2.4404
 2380SOL    HW2 8582   1.133   4.382   6.549 -0.6348  2.6913 -1.9190
 2381SOL     OW 8583   2.535   3.412  11.860 -0.6597  1.0875 -0.0757
 2381SOL    HW1 8584   2.594   3.487  11.856 -0.4235  0.8728 -3.0180
 2381SOL    HW2 8585   2.593   3.337  11.874 -0.7492  1.2455  1.3429
 2382SOL     OW 8586   7.591   6.157   5.991 -0.0331 -0.3327 -0.7099
 2382SOL    HW1 8587   7.627   6.088   5.935  2.2264  0.8482 -0.8361
 2382SOL    HW2 8588   7.608   6.238   5.943  1.3555  0.6663  1.3252
 2383SOL     OW 8589   5.652   7.196   9.306 -0.0825  0.7108 -0.0253
 2383SOL    HW1 8590   5.582   7.197   9.371  0.6899  0.5653  0.8303
 2383SOL    HW2 8591   5.678   7.104   9.301  0.3549  0.8324  0.0070
 2384SOL     OW 8592   0.616   3.339  11.527 -0.1655 -0.2964 -0.1488
 2384SOL    HW1 8593   0.556   3.325  11.454  0.7570 -1.5939 -0.7121
 2384SOL    HW2 8594   0.664   3.419  11.505  1.2207 -1.5082 -1.8236
 2385SOL     OW 8595   0.262   1.914   7.822  0.4831 -0.1230  0.3904
 2385SOL    HW1 8596   0.308   1.982   7.871 -1.2277  0.1538  1.6942
 2385SOL    HW2 8597   0.309   1.833   7.843  2.3668  0.5619 -0.9525
 2386SOL     OW 8598   4.828   7.566   1.253 -0.2192  0.1533  0.1496
 2386SOL    HW1 8599   4.765   7.499   1.228  0.0478  0.2563 -0.8201
 2386SOL    HW2 8600   4.884   7.577   1.177  0.5924  0.5115  0.7788
 2387SOL     OW 8601   2.512   1.735   3.533 -0.4580 -0.1547 -0.1557
 2387SOL    HW1 8602   2.496   1.738   3.628 -3.3175 -0.1112 -0.5501
 2387SOL    HW2 8603   2.583   1.671   3.523  0.1881  0.1309  2.0144
 2388SOL     OW 8604   5.508   3.665   6.910  0.8171 -0.2426  0.0647
 2388SOL    HW1 8605   5.425   3.667   6.958  0.6925  1.2756 -0.1513
 2388SOL    HW2 8606   5.491   3.610   6.834  0.3492 -0.8589  0.6086
 2389SOL     OW 8607   2.038   2.567  10.098 -0.7244 -0.4317  0.2437
 2389SOL    HW1 8608   2.014   2.528  10.182 -1.9200  0.8194  0.5309
 2389SOL    HW2 8609   2.071   2.655  10.121  0.2070 -0.5745 -0.5042
 2390SOL     OW 8610   1.766   0.865   7.377 -0.0182  0.2016 -0.1915
 2390SOL    HW1 8611   1.827   0.881   7.449  1.4246  1.8540 -1.6557
 2390SOL    HW2 8612   1.816   0.812   7.315 -1.0189 -0.6761 -0.2669
 2391SOL     OW 8613   0.703   1.211   0.653 -0.4053 -0.0056 -0.0396
 2391SOL    HW1 8614   0.764   1.268   0.606 -0.8531  0.7807  0.2954
 2391SOL    HW2 8615   0.717   1.124   0.617  1.9424 -0.1423  1.0257
 2392SOL     OW 8616   1.729   2.197   7.439  0.0983 -0.0839 -0.9488
 2392SOL    HW1 8617   1.642   2.210   7.401  0.2881  1.4755 -0.9138
 2392SOL    HW2 8618   1.790   2.215   7.367  0.4321 -1.9869 -1.2127
 2393SOL     OW 8619   7.795   2.387  10.698  0.1183  0.7214 -0.1990
 2393SOL    HW1 8620   7.851   2.325  10.651  0.8463 -0.4134  1.9887
 2393SOL    HW2 8621   7.724   2.407  10.637  1.1801 -0.3662 -1.8653
 2394SOL     OW 8622   1.801   0.872   5.453  0.1974 -0.0052  0.1385
 2394SOL    HW1 8623   1.843   0.896   5.535 -1.5632 -0.6347  1.2928
 2394SOL    HW2 8624   1.796   0.954   5.404  1.0462  0.4312  0.7570
 2395SOL     OW 8625   5.991   6.692  11.788 -0.3593 -0.0127 -0.0183
 2395SOL    HW1 8626   5.927   6.641  11.740  2.1844 -1.2510 -2.4084
 2395SOL    HW2 8627   6.071   6.685  11.736  1.2090  3.1611  1.6508
 2396SOL     OW 8628   6.512   6.328   8.125 -0.3673 -0.8772  0.0589
 2396SOL    HW1 8629   6.541   6.385   8.054 -1.3771 -0.7247 -0.2523
 2396SOL    HW2 8630   6.555   6.244   8.108  0.5299 -0.4288  0.0892
 2397SOL     OW 8631   7.537   7.873   2.780  0.6614 -0.3182  0.3099
 2397SOL    HW1 8632   7.611   7.903   2.726 -0.8057 -0.6998 -2.0429
 2397SOL    HW2 8633   7.533   7.779   2.764 -0.5984 -0.2298  0.0313
 2398SOL     OW 8634   3.574   2.614   0.762 -0.2419 -0.4084 -0.6778
 2398SOL    HW1 8635   3.573   2.524   0.795 -1.6645  0.0847  0.7536
 2398SOL    HW2 8636   3.498   2.620   0.704  0.4397 -0.3918 -1.5927
 2399SOL     OW 8637   5.084   2.620   4.755  0.1823  0.1319  0.0586
 2399SOL    HW1 8638   5.065   2.710   4.729  0.6917 -0.1889 -1.5712
 2399SOL    HW2 8639   5.157   2.594   4.697 -0.9140 -1.7902 -0.5437
 2400SOL     OW 8640   0.929   6.362   2.550 -0.0277 -0.0868  0.4515
 2400SOL    HW1 8641   0.836   6.345   2.564  0.0861 -0.6046  0.6251
 2400SOL    HW2 8642   0.973   6.296   2.604  0.4407  0.7069  1.0509
 2401SOL     OW 8643   1.116   4.970   5.325  0.1966 -0.0390 -0.0673
 2401SOL    HW1 8644   1.087   4.945   5.412  0.8154  1.0018  0.4617
 2401SOL    HW2 8645   1.211   4.956   5.326  0.3054  0.6200 -0.3323
 2402SOL     OW 8646   7.570   6.351   9.532  1.1869 -0.2884  0.0836
 2402SOL    HW1 8647   7.530   6.273   9.570 -0.8498  0.6796  0.1129
 2402SOL    HW2 8648   7.597   6.325   9.445 -0.7736 -0.7242 -0.4461
 2403SOL     OW 8649   0.887   6.867  10.847 -0.0832 -0.0431 -0.6026
 2403SOL    HW1 8650   0.974   6.838  10.817  0.8769  0.5644  1.4082
 2403SOL    HW2 8651   0.893   6.962  10.850 -1.2586  0.0887 -1.5654
 2404SOL     OW 8652   5.101   1.115   2.003  0.3058  0.2120  0.3130
 2404SOL    HW1 8653   5.059   1.134   1.919  0.5952 -0.6062 -0.0226
 2404SOL    HW2 8654   5.051   1.041   2.038  1.7629 -1.1156 -0.3271
 2405SOL     OW 8655   2.180   4.944   3.036  0.1675  0.2739  0.1801
 2405SOL    HW1 8656   2.151   4.970   2.949  0.4019 -1.1371 -0.3536
 2405SOL    HW2 8657   2.266   4.986   3.046  0.6692 -0.4840 -0.7674
 2406SOL     OW 8658   3.216   2.494  11.088  0.0989 -0.3367 -0.2246
 2406SOL    HW1 8659   3.217   2.420  11.028 -2.2531  0.5412 -1.4826
 2406SOL    HW2 8660   3.187   2.457  11.172 -4.5683 -0.5291 -1.6336
 2407SOL     OW 8661   0.801   0.019   2.769  0.2038 -0.3019  0.1415
 2407SOL    HW1 8662   0.755   0.009   2.685  0.8838  0.3311 -0.3116
 2407SOL    HW2 8663   0.846  -0.065   2.781 -0.1490 -0.5135  0.0399
 2408SOL     OW 8664   6.655   7.522   5.049 -0.1042  0.4999 -0.1977
 2408SOL    HW1 8665   6.635   7.501   5.141 -1.4131  0.6423 -0.4295
 2408SOL    HW2 8666   6.619   7.609   5.035 -3.0323 -0.8120 -1.7224
 2409SOL     OW 8667   7.395   5.581  11.906 -0.3720  0.2573  0.1075
 2409SOL    HW1 8668   7.444   5.504  11.877 -0.1639  0.6000 -0.4530
 2409SOL    HW2 8669   7.314   5.545  11.943 -0.7161 -0.1887 -1.0452
 2410SOL     OW 8670   3.691   4.202   9.734  0.1832  0.4677 -0.5518
 2410SOL    HW1 8671   3.740   4.258   9.795  2.4772 -0.7948 -1.1025
 2410SOL    HW2 8672   3.679   4.256   9.657 -0.4120  1.2116  0.0454
 2411SOL     OW 8673   1.772   7.773   6.420 -0.8454 -0.0111 -0.4395
 2411SOL    HW1 8674   1.844   7.719   6.389 -2.3437 -0.8376 -2.8068
 2411SOL    HW2 8675   1.729   7.720   6.487  0.3733  0.2813  0.6213
 2412SOL     OW 8676   4.013   5.181   1.632 -0.3872  0.3575  0.0880
 2412SOL    HW1 8677   4.106   5.161   1.635 -0.6624 -1.0392 -0.3920
 2412SOL    HW2 8678   3.996   5.204   1.541 -0.3153  1.7257  0.3929
 2413SOL     OW 8679   7.547   3.402   3.218  0.1576  0.4026  0.0592
 2413SOL    HW1 8680   7.493   3.476   3.247  2.5109  1.7591  1.2266
 2413SOL    HW2 8681   7.592   3.373   3.297  0.3120 -1.4539 -0.6565
 2414SOL     OW 8682   5.843   2.702   7.646  0.0505 -0.6342 -0.1448
 2414SOL    HW1 8683   5.896   2.708   7.725  0.8836 -1.7321 -0.5825
 2414SOL    HW2 8684   5.753   2.701   7.677  0.3249  0.0428  0.7026
 2415SOL     OW 8685   7.398   2.886   6.075 -0.2351  0.3720  0.0870
 2415SOL    HW1 8686   7.453   2.938   6.017 -0.2279  0.6885  0.3727
 2415SOL    HW2 8687   7.373   2.810   6.023 -2.1279  1.7464 -1.0971
 2416SOL     OW 8688   3.574   2.224   7.347  0.5539  0.0381  0.6444
 2416SOL    HW1 8689   3.655   2.218   7.397  2.2008  0.3107 -1.8167
 2416SOL    HW2 8690   3.602   2.218   7.255 -2.4375 -2.0904 -0.2589
 2417SOL     OW 8691   3.737   2.995   4.405  0.5042  0.4579 -0.1015
 2417SOL    HW1 8692   3.683   3.049   4.462  0.3448 -0.8205  1.0041
 2417SOL    HW2 8693   3.703   3.013   4.317 -2.2950 -0.8268  0.5880
 2418SOL     OW 8694   1.912   1.620   3.032 -0.0894  0.4297  0.0730
 2418SOL    HW1 8695   1.822   1.644   3.053 -0.3072  0.6346 -1.0609
 2418SOL    HW2 8696   1.965   1.663   3.100 -0.8279  0.4182  0.6615
 2419SOL     OW 8697   2.361   7.712   6.341 -0.4302  0.0058 -0.0517
 2419SOL    HW1 8698   2.428   7.656   6.301 -0.6567  0.3782 -0.9740
 2419SOL    HW2 8699   2.397   7.735   6.427  0.2114 -0.5511 -0.1662
 2420SOL     OW 8700   4.433   5.745   4.128  0.6433  0.2240  0.1860
 2420SOL    HW1 8701   4.516   5.721   4.170  0.4917  0.0304  0.3733
 2420SOL    HW2 8702   4.422   5.683   4.057 -1.5750 -2.7851  2.8538
 2421SOL     OW 8703   0.136   1.126   8.388  0.3848 -0.5689  0.3302
 2421SOL    HW1 8704   0.089   1.043   8.391  0.6426 -0.8363 -1.5460
 2421SOL    HW2 8705   0.218   1.110   8.433  1.4623 -2.0913 -2.0149
 2422SOL     OW 8706   6.694   2.456   0.154 -0.5227 -0.0438  0.0791
 2422SOL    HW1 8707   6.621   2.399   0.131 -0.0537 -0.7214  0.2521
 2422SOL    HW2 8708   6.751   2.455   0.078 -0.6373  0.4059 -0.0171
 2423SOL     OW 8709   0.015   0.621   1.814 -0.1774 -0.3962  0.2314
 2423SOL    HW1 8710   0.037   0.611   1.721  0.4969  0.4340  0.2880
 2423SOL    HW2 8711   0.088   0.670   1.850  0.3276 -2.0478  1.5502
 2424SOL     OW 8712   1.252   3.932   8.472 -0.5632  0.4565  0.0978
 2424SOL    HW1 8713   1.158   3.937   8.458 -0.6001  3.9853  0.8292
 2424SOL    HW2 8714   1.291   3.974   8.396  0.3292  0.7442  0.7015
 2425SOL     OW 8715   4.440   1.895   1.507 -0.6119 -0.3351  0.1518
 2425SOL    HW1 8716   4.486   1.881   1.425 -1.6446 -0.5602 -0.4027
 2425SOL    HW2 8717   4.501   1.863   1.574  0.4700  0.3803 -0.4603
 2426SOL     OW 8718   2.059   2.808  12.049  0.3678  0.2468 -0.0697
 2426SOL    HW1 8719   2.084   2.732  12.101  0.1761  0.8181  0.8804
 2426SOL    HW2 8720   1.965   2.817  12.063  0.5803  1.3568  0.8136
 2427SOL     OW 8721   3.063   1.991   9.209 -0.0254  0.2737  0.5649
 2427SOL    HW1 8722   3.086   1.936   9.284 -0.1424 -0.6490 -0.0642
 2427SOL    HW2 8723   2.968   1.992   9.209 -0.0273  0.1447  0.3429
 2428SOL     OW 8724   2.237   0.082   8.818 -0.4054 -0.7042 -0.0430
 2428SOL    HW1 8725   2.252   0.173   8.795 -0.8144 -0.8653 -0.9698
 2428SOL    HW2 8726   2.291   0.032   8.756 -0.6785 -1.1143  0.0450
 2429SOL     OW 8727   6.506   7.305   4.979 -0.6825  0.1316 -0.2594
 2429SOL    HW1 8728   6.565   7.374   5.009 -0.0413 -0.7553  0.5885
 2429SOL    HW2 8729   6.500   7.245   5.053 -0.6412 -1.0980 -1.2264
 2430SOL     OW 8730   4.474   5.144   1.842 -0.2791  0.0355 -0.1805
 2430SOL    HW1 8731   4.439   5.175   1.925 -1.4317 -0.1332 -0.5765
 2430SOL    HW2 8732   4.481   5.049   1.853 -0.4051  0.0163 -0.2565
 2431SOL     OW 8733   2.063   0.739   3.023 -0.1597 -0.6775  0.0755
 2431SOL    HW1 8734   1.974   0.770   3.011  0.1484  0.9514  1.5701
 2431SOL    HW2 8735   2.107   0.761   2.941 -0.4336  1.2427  0.4045
 2432SOL     OW 8736   5.606   7.548   1.106  0.1933 -0.5216  0.0143
 2432SOL    HW1 8737   5.684   7.582   1.062 -0.9842  0.6845 -1.2504
 2432SOL    HW2 8738   5.533   7.596   1.067 -1.0483 -0.1871  2.5472
 2433SOL     OW 8739   5.250   3.573   6.147  0.3554 -0.6435 -0.4983
 2433SOL    HW1 8740   5.197   3.516   6.092  1.2431  0.7917 -3.0143
 2433SOL    HW2 8741   5.317   3.516   6.184 -1.7281 -2.1198  1.2658
 2434SOL     OW 8742   2.174   4.807   9.451 -0.2184 -0.2494 -0.3073
 2434SOL    HW1 8743   2.148   4.792   9.360 -0.4338  1.4104 -0.5555
 2434SOL    HW2 8744   2.268   4.821   9.447 -0.0457 -1.3066 -0.1041
 2435SOL     OW 8745   1.760   5.285  10.352 -0.1266 -0.0997 -0.0830
 2435SOL    HW1 8746   1.694   5.230  10.310 -0.9754 -0.2021  1.3106
 2435SOL    HW2 8747   1.709   5.346  10.406  0.8370  1.4760 -0.9070
 2436SOL     OW 8748   5.996   6.591   9.551  0.1315 -0.6194 -0.1452
 2436SOL    HW1 8749   5.977   6.684   9.541  0.7395 -0.3774  0.8183
 2436SOL    HW2 8750   5.926   6.547   9.503  0.4343  0.3406 -1.5306
 2437SOL     OW 8751   2.669   3.845   0.921 -0.0412 -0.6141  0.4284
 2437SOL    HW1 8752   2.618   3.768   0.896 -0.4568 -1.2635  2.9750
 2437SOL    HW2 8753   2.634   3.871   1.006  1.9747  0.6650  0.9525
 2438SOL     OW 8754   5.806   3.633   8.570 -0.2469 -0.0450 -0.1773
 2438SOL    HW1 8755   5.870   3.699   8.596  0.3519  0.0823 -1.8618
 2438SOL    HW2 8756   5.787   3.584   8.650  0.6135  1.0459  0.7167
 2439SOL     OW 8757   1.515   2.720   8.446 -0.3212 -0.5041 -0.7773
 2439SOL    HW1 8758   1.458   2.777   8.497  0.0499 -0.2445 -0.6508
 2439SOL    HW2 8759   1.604   2.751   8.465 -0.2399  0.9455 -3.1427
 2440SOL     OW 8760   0.920   4.540   8.978  0.0530 -0.0039  0.0666
 2440SOL    HW1 8761   0.899   4.452   9.010  1.5297  0.1666  1.6771
 2440SOL    HW2 8762   0.996   4.529   8.923  1.7218  0.4447  2.1328
 2441SOL     OW 8763   2.838   1.706   5.112  0.1816  0.2795  0.4975
 2441SOL    HW1 8764   2.810   1.640   5.048  1.4110  1.0647 -0.9199
 2441SOL    HW2 8765   2.899   1.659   5.169  0.6403  0.0571 -0.1663
 2442SOL     OW 8766   5.724   2.926  10.187 -0.1841  0.4419  0.6641
 2442SOL    HW1 8767   5.655   2.947  10.124 -0.8363 -1.0903  0.8345
 2442SOL    HW2 8768   5.796   2.985  10.164 -0.0736 -0.6199 -2.0831
 2443SOL     OW 8769   6.176   7.916   9.807  0.5168  0.0797  0.2364
 2443SOL    HW1 8770   6.160   7.847   9.742 -2.5818  1.5105 -0.7141
 2443SOL    HW2 8771   6.199   7.993   9.756  1.6837  0.3622  1.1376
 2444SOL     OW 8772   2.714   7.880  10.914  0.0392  0.1783  0.0682
 2444SOL    HW1 8773   2.721   7.967  10.875 -1.9135  0.2055 -0.3282
 2444SOL    HW2 8774   2.704   7.897  11.008  1.9436  0.2401  0.2921
 2445SOL     OW 8775   4.452   0.305   3.331 -0.3942 -0.2038 -0.5256
 2445SOL    HW1 8776   4.428   0.254   3.253  2.1779 -1.1457 -0.8008
 2445SOL    HW2 8777   4.491   0.384   3.296 -2.6459  1.1909 -0.0934
 2446SOL     OW 8778   0.745   7.164   3.423  0.4843 -0.1695  0.1700
 2446SOL    HW1 8779   0.716   7.254   3.433 -0.1016 -0.3927  0.5447
 2446SOL    HW2 8780   0.750   7.151   3.328 -1.5485 -0.3871  0.0498
 2447SOL     OW 8781   7.184   5.178  12.054 -0.3093 -0.0197 -0.2293
 2447SOL    HW1 8782   7.159   5.262  12.091  3.9228  1.1235  0.5419
 2447SOL    HW2 8783   7.202   5.123  12.131 -0.0358 -0.5787 -0.6874
 2448SOL     OW 8784   1.249   6.327   2.742 -0.2269  0.1256 -0.2527
 2448SOL    HW1 8785   1.234   6.413   2.779 -1.0970 -0.4989  0.9100
 2448SOL    HW2 8786   1.333   6.334   2.697  0.5783  1.0975  1.3192
 2449SOL     OW 8787   5.949   0.845   7.736 -0.0092 -0.4886 -0.0020
 2449SOL    HW1 8788   6.018   0.781   7.752  0.8390  0.1406 -1.0106
 2449SOL    HW2 8789   5.983   0.928   7.770 -0.2107 -0.1498 -0.5945
 2450SOL     OW 8790   4.529   1.939   5.178 -0.6797 -0.7331  0.4225
 2450SOL    HW1 8791   4.610   1.965   5.135 -0.6063 -0.5071  0.6992
 2450SOL    HW2 8792   4.512   1.850   5.145 -1.9834  0.3324 -2.0979
 2451SOL     OW 8793   5.800   1.726   4.487 -0.1325 -0.4853 -0.2955
 2451SOL    HW1 8794   5.767   1.740   4.398 -2.2983  0.4755  0.5921
 2451SOL    HW2 8795   5.723   1.699   4.537  1.4404 -3.0994  0.8931
 2452SOL     OW 8796   4.091   7.392   8.908 -0.2658  0.0972 -0.0850
 2452SOL    HW1 8797   4.184   7.413   8.898  0.5937 -3.1331 -0.2094
 2452SOL    HW2 8798   4.058   7.458   8.969  2.3197  0.8597  0.6351
 2453SOL     OW 8799   0.850   4.111   7.593  0.4347  0.6374 -0.0906
 2453SOL    HW1 8800   0.817   4.065   7.516  0.5573  0.7597 -0.2165
 2453SOL    HW2 8801   0.891   4.043   7.646 -1.4362  0.1681  0.8670
 2454SOL     OW 8802   7.395   4.975   0.069 -0.6147  0.0394 -0.1752
 2454SOL    HW1 8803   7.360   5.061   0.092 -0.7202 -0.1410  0.3814
 2454SOL    HW2 8804   7.474   4.966   0.122 -0.5189 -0.1386 -0.3476
 2455SOL     OW 8805   3.580   6.347  12.154 -0.4165 -0.4258 -0.6926
 2455SOL    HW1 8806   3.509   6.374  12.213  0.5997 -0.3466  0.5270
 2455SOL    HW2 8807   3.648   6.314  12.212  0.4651 -0.7166 -1.8588
 2456SOL     OW 8808   6.837   2.560   3.116  0.0669  0.1803 -0.0891
 2456SOL    HW1 8809   6.799   2.590   3.034 -0.0331 -0.3931 -0.2596
 2456SOL    HW2 8810   6.764   2.520   3.163  0.2743 -0.1564 -0.0471
 2457SOL     OW 8811   6.427   1.221   5.424  0.5210 -0.0440 -0.2539
 2457SOL    HW1 8812   6.441   1.309   5.460  1.5564 -0.6860  1.0030
 2457SOL    HW2 8813   6.461   1.226   5.335  0.6085  0.8116 -0.1836
 2458SOL     OW 8814   7.598   4.126   0.290 -0.5533 -0.0098 -0.1546
 2458SOL    HW1 8815   7.613   4.079   0.372 -0.9452 -0.2818 -0.2368
 2458SOL    HW2 8816   7.514   4.171   0.302  0.0607  1.1153  0.1243
 2459SOL     OW 8817   2.939   5.231   9.420  0.1993 -0.2698  0.5844
 2459SOL    HW1 8818   2.982   5.193   9.343 -0.8840  0.3100 -0.3355
 2459SOL    HW2 8819   2.950   5.325   9.409  0.0615 -0.1867  1.1573
 2460SOL     OW 8820   4.480   0.655  10.246  0.1429  0.3367  0.0126
 2460SOL    HW1 8821   4.483   0.750  10.233 -0.6778  0.2333 -1.0895
 2460SOL    HW2 8822   4.571   0.629  10.261  0.3467  1.3135  0.5330
 2461SOL     OW 8823   4.030   5.953   2.512  0.2163 -0.5875 -0.3471
 2461SOL    HW1 8824   4.048   5.865   2.479 -0.6066 -0.9374  0.1134
 2461SOL    HW2 8825   4.117   5.989   2.532  0.5381 -1.4210 -0.2041
 2462SOL     OW 8826   3.291   7.110   9.662 -0.1820  0.1714 -0.0542
 2462SOL    HW1 8827   3.359   7.155   9.612 -0.1543  2.5157  1.9068
 2462SOL    HW2 8828   3.338   7.050   9.720 -0.0545 -0.6722 -1.0074
 2463SOL     OW 8829   2.696   3.702   3.778 -0.5493 -0.2994 -0.4017
 2463SOL    HW1 8830   2.607   3.730   3.801 -0.4875 -1.3952  1.3186
 2463SOL    HW2 8831   2.722   3.763   3.709 -2.4198  0.4067 -0.5559
 2464SOL     OW 8832   1.720   6.722   7.001  0.3804  0.0523 -0.4346
 2464SOL    HW1 8833   1.635   6.745   7.036  1.1965  0.9891  1.0305
 2464SOL    HW2 8834   1.772   6.696   7.077  1.4958 -0.2109 -1.2508
 2465SOL     OW 8835   4.978   4.225   1.466  0.2494  0.4788 -0.0653
 2465SOL    HW1 8836   4.937   4.174   1.397  0.0680 -0.7122  0.8943
 2465SOL    HW2 8837   5.072   4.224   1.445  0.5342 -2.0165  0.9926
 2466SOL     OW 8838   2.970   6.466   2.739  0.1586  0.2512 -0.0892
 2466SOL    HW1 8839   3.057   6.472   2.776 -0.2205 -0.5740  0.9738
 2466SOL    HW2 8840   2.941   6.557   2.731  0.5971  0.4738  0.7953
 2467SOL     OW 8841   5.837   1.807   6.838 -0.1767 -0.0335 -0.2940
 2467SOL    HW1 8842   5.883   1.741   6.890  1.4731  1.5331  0.3407
 2467SOL    HW2 8843   5.789   1.756   6.772 -1.9595 -2.0685  2.3603
 2468SOL     OW 8844   4.469   6.547   9.820  0.0985 -0.6831  0.0794
 2468SOL    HW1 8845   4.431   6.536   9.907 -1.0227  0.7662 -0.2054
 2468SOL    HW2 8846   4.480   6.641   9.810 -2.9060 -0.4365 -2.5845
 2469SOL     OW 8847   3.877   2.290   3.321 -0.0771 -0.2596  0.1501
 2469SOL    HW1 8848   3.838   2.204   3.306  0.7939 -0.8269  1.0065
 2469SOL    HW2 8849   3.929   2.306   3.242 -2.4813  0.8156 -1.3143
 2470SOL     OW 8850   3.812   4.350   0.406  0.6122  0.3977 -0.1555
 2470SOL    HW1 8851   3.777   4.326   0.320 -1.7747  0.0358  0.8314
 2470SOL    HW2 8852   3.807   4.269   0.457 -2.0010  1.4605  1.4980
 2471SOL     OW 8853   7.610   6.040   7.039 -0.5896 -0.0496 -0.5099
 2471SOL    HW1 8854   7.542   6.104   7.057 -0.0288  0.2438  0.6488
 2471SOL    HW2 8855   7.686   6.092   7.014 -0.1208 -0.2357  0.4772
 2472SOL     OW 8856   0.030   7.694   2.690 -0.1401  0.5481 -0.4180
 2472SOL    HW1 8857   0.078   7.718   2.769 -0.0434 -0.2102 -0.2363
 2472SOL    HW2 8858  -0.026   7.770   2.671 -0.7079  0.4533  0.8024
 2473SOL     OW 8859   5.892   6.433   7.762 -0.4161  0.4972  0.0579
 2473SOL    HW1 8860   5.987   6.430   7.770 -0.4849 -0.0496  0.7529
 2473SOL    HW2 8861   5.864   6.493   7.831 -0.6607 -0.4373  0.8035
 2474SOL     OW 8862   6.760   7.057   1.890 -0.3506  0.1547  0.5875
 2474SOL    HW1 8863   6.846   7.015   1.884 -0.8996 -0.8107 -0.9274
 2474SOL    HW2 8864   6.778   7.141   1.932  1.8029  1.2397 -2.1622
 2475SOL     OW 8865   0.324   5.348   8.794  0.0293  0.1899  0.7934
 2475SOL    HW1 8866   0.296   5.429   8.838 -1.8301 -0.0824  0.2143
 2475SOL    HW2 8867   0.247   5.321   8.744  1.0542 -1.2401 -0.0725
 2476SOL     OW 8868   7.390   5.886   6.704  0.5645  0.5214  0.4381
 2476SOL    HW1 8869   7.393   5.891   6.608  0.9785 -1.7283  0.2599
 2476SOL    HW2 8870   7.343   5.964   6.732 -0.2267  0.8450 -1.6514
 2477SOL     OW 8871   3.134   0.660   6.049  0.3432  0.5751  0.1451
 2477SOL    HW1 8872   3.220   0.696   6.026  1.2478 -0.2758  2.0030
 2477SOL    HW2 8873   3.071   0.718   6.005  1.8390  1.4067 -0.9908
 2478SOL     OW 8874   1.002   4.482   4.515  0.3332  0.7032 -0.3120
 2478SOL    HW1 8875   1.074   4.524   4.468  0.2802  0.7436 -0.3556
 2478SOL    HW2 8876   0.923   4.521   4.479  0.3045  1.0325  0.0965
 2479SOL     OW 8877   4.812   7.718   1.487 -0.1704 -0.3408  0.1092
 2479SOL    HW1 8878   4.723   7.716   1.522  0.5119 -0.3495  1.9695
 2479SOL    HW2 8879   4.807   7.666   1.406 -1.9639  0.1806 -0.1591
 2480SOL     OW 8880   6.593   4.032   6.149  0.2676 -0.8951 -0.4312
 2480SOL    HW1 8881   6.619   4.093   6.080  0.1070 -2.5436 -2.0243
 2480SOL    HW2 8882   6.498   4.033   6.148  0.2591 -0.6715  0.0335
 2481SOL     OW 8883   5.504   0.846   7.310 -0.0927 -0.1699 -0.3483
 2481SOL    HW1 8884   5.442   0.900   7.261 -1.1319 -0.7861  0.2486
 2481SOL    HW2 8885   5.459   0.763   7.324  1.2919 -1.0445 -0.8338
 2482SOL     OW 8886   2.252   4.614   7.561 -0.4967  0.0115 -0.4038
 2482SOL    HW1 8887   2.178   4.619   7.500 -2.0300  0.8157  1.4175
 2482SOL    HW2 8888   2.302   4.694   7.545  0.8459 -1.1600 -2.5777
 2483SOL     OW 8889   0.818   4.276   5.322  0.9354  0.8456 -0.3467
 2483SOL    HW1 8890   0.785   4.199   5.277 -0.0341  0.6520  0.6513
 2483SOL    HW2 8891   0.913   4.263   5.325  0.7736 -0.3925 -0.0468
 2484SOL     OW 8892   2.974   0.222   4.913  0.4550 -0.3529  0.1062
 2484SOL    HW1 8893   3.021   0.140   4.925  2.1194  0.8794  3.0711
 2484SOL    HW2 8894   3.032   0.276   4.860  0.4800 -0.2502  0.2381
 2485SOL     OW 8895   3.859   5.033  11.053 -0.0747 -0.3159 -0.1073
 2485SOL    HW1 8896   3.773   5.075  11.055 -1.3235 -2.5833 -2.0540
 2485SOL    HW2 8897   3.849   4.954  11.106  0.9627 -0.3696  0.0361
 2486SOL     OW 8898   7.499   0.040   2.091  0.4593 -0.0002 -0.2841
 2486SOL    HW1 8899   7.462  -0.033   2.040 -0.6595  0.1745  0.2516
 2486SOL    HW2 8900   7.438   0.112   2.077  0.4218  0.2081  0.8791
 2487SOL     OW 8901   2.354   2.934   0.614  0.0721 -0.1701 -0.0678
 2487SOL    HW1 8902   2.267   2.900   0.637 -0.0648 -0.0183 -0.3557
 2487SOL    HW2 8903   2.412   2.898   0.681  0.4035 -3.0566 -1.7883
 2488SOL     OW 8904   5.990   1.772  10.859 -0.0681 -0.6387  0.1046
 2488SOL    HW1 8905   5.980   1.789  10.766  2.2936  2.0525  0.2102
 2488SOL    HW2 8906   6.077   1.731  10.867  0.6887  1.0591  1.2179
 2489SOL     OW 8907   6.800   7.553   3.376  0.0145 -0.1734 -0.1509
 2489SOL    HW1 8908   6.825   7.628   3.322 -0.7955  1.6801  1.9246
 2489SOL    HW2 8909   6.883   7.519   3.410  0.2749  1.5393  1.0544
 2490SOL     OW 8910   4.989   5.151  11.569 -0.0359  0.3593  0.0159
 2490SOL    HW1 8911   5.020   5.241  11.555 -0.2175  0.7339  1.7915
 2490SOL    HW2 8912   4.974   5.117  11.481  2.0875  1.3226 -0.7825
 2491SOL     OW 8913   6.566   6.406   2.480  0.3045  0.5240 -0.3932
 2491SOL    HW1 8914   6.509   6.453   2.540 -0.1632  0.7562 -1.0090
 2491SOL    HW2 8915   6.558   6.453   2.397  0.0660 -0.4389 -0.9372
 2492SOL     OW 8916   5.144   5.820   7.139 -0.0517 -0.2862  0.6902
 2492SOL    HW1 8917   5.113   5.909   7.125 -0.6055 -0.6113 -0.2163
 2492SOL    HW2 8918   5.216   5.830   7.202  0.0068  0.8111  0.4752
 2493SOL     OW 8919   0.263   7.257   0.237 -0.2096  0.1243  0.3797
 2493SOL    HW1 8920   0.265   7.162   0.226 -1.4282  0.1725 -0.3944
 2493SOL    HW2 8921   0.189   7.286   0.184  1.5880  1.7902 -1.3797
 2494SOL     OW 8922   5.522   6.659  10.148 -0.0350 -0.5105 -0.2850
 2494SOL    HW1 8923   5.532   6.740  10.098  0.5470  0.3274  1.1378
 2494SOL    HW2 8924   5.580   6.669  10.223 -0.1700 -2.1364  0.0851
 2495SOL     OW 8925   2.050   1.136   8.983  0.1983 -0.2392 -0.0230
 2495SOL    HW1 8926   2.111   1.165   8.914  1.1104 -1.8931  0.0463
 2495SOL    HW2 8927   2.093   1.160   9.065 -1.2505  2.4621  0.0586
 2496SOL     OW 8928   1.971   0.999   9.710 -0.8892  0.4283 -0.2842
 2496SOL    HW1 8929   1.893   0.968   9.664 -1.3941  1.1181  0.0977
 2496SOL    HW2 8930   1.974   0.946   9.790  0.6327 -1.5998 -1.5622
 2497SOL     OW 8931   6.830   0.273   6.770 -0.1423 -0.3150  0.2507
 2497SOL    HW1 8932   6.894   0.276   6.700  1.3662  0.5375  1.6075
 2497SOL    HW2 8933   6.850   0.193   6.819 -1.1691 -0.8928 -0.2197
 2498SOL     OW 8934   1.892   7.601   2.581 -0.4355  0.5295 -0.0380
 2498SOL    HW1 8935   1.903   7.642   2.495  1.5209 -0.2668 -0.2182
 2498SOL    HW2 8936   1.837   7.662   2.630  1.2976  2.7712 -0.7125
 2499SOL     OW 8937   5.093   0.348   5.762  0.1933 -0.1794 -0.1358
 2499SOL    HW1 8938   5.156   0.316   5.828  1.2737 -1.3454 -1.6499
 2499SOL    HW2 8939   5.148   0.380   5.691 -0.9512  1.1247 -0.4573
 2500SOL     OW 8940   6.672   6.231   4.153 -0.2205 -0.0269  0.0154
 2500SOL    HW1 8941   6.620   6.157   4.122 -2.7470  1.6264  0.0777
 2500SOL    HW2 8942   6.718   6.263   4.076 -0.9732 -0.1930 -0.5024
 2501SOL     OW 8943   0.256   5.741   6.791  0.2866 -0.3053  0.1106
 2501SOL    HW1 8944   0.261   5.828   6.753  1.8314  0.3597  1.6674
 2501SOL    HW2 8945   0.225   5.755   6.880  1.2890 -1.2195  0.6342
 2502SOL     OW 8946   2.534   3.206   1.542 -0.1591  0.0360 -0.5530
 2502SOL    HW1 8947   2.552   3.129   1.596  1.1187  1.0665  0.5449
 2502SOL    HW2 8948   2.575   3.186   1.457  0.8324 -0.1776 -0.0318
 2503SOL     OW 8949   1.069   5.924   0.663 -0.1550 -0.1468 -0.4493
 2503SOL    HW1 8950   1.060   6.012   0.626 -0.7371  0.1566  0.3814
 2503SOL    HW2 8951   1.078   5.866   0.587  1.9422  0.7971 -0.9864
 2504SOL     OW 8952   7.761   7.485   6.104  0.5046 -0.6407  0.0238
 2504SOL    HW1 8953   7.767   7.507   6.197  0.1318 -0.1340 -0.0668
 2504SOL    HW2 8954   7.852   7.472   6.077  0.6960  0.2601  0.2138
 2505SOL     OW 8955   6.899   6.114   8.543 -0.0495 -0.6816  0.2275
 2505SOL    HW1 8956   6.950   6.067   8.609  1.9396 -0.4550 -1.0570
 2505SOL    HW2 8957   6.869   6.045   8.483  0.2254 -0.6434  0.0438
 2506SOL     OW 8958   5.934   6.364   0.013 -0.1652 -0.3237  0.0137
 2506SOL    HW1 8959   5.907   6.333  -0.073  0.1823 -1.0384  0.1510
 2506SOL    HW2 8960   6.027   6.382   0.004 -0.1428 -0.3345  0.2197
 2507SOL     OW 8961   1.781   5.892  10.186  0.1117 -0.4171  0.3387
 2507SOL    HW1 8962   1.805   5.825  10.122  2.7608 -0.1239  0.8875
 2507SOL    HW2 8963   1.720   5.949  10.139 -0.1116 -1.6994 -1.0101
 2508SOL     OW 8964   3.913   3.713   5.262  0.1464 -0.0665 -0.4161
 2508SOL    HW1 8965   4.005   3.724   5.239  0.5335 -1.6071  0.2377
 2508SOL    HW2 8966   3.891   3.625   5.232 -0.6443 -0.3223  0.8239
 2509SOL     OW 8967   7.637   0.028  11.224  0.4405 -0.0630  0.2020
 2509SOL    HW1 8968   7.678   0.010  11.309  0.6743  0.0898  0.1215
 2509SOL    HW2 8969   7.572  -0.042  11.214 -0.9969  1.0384  1.4056
 2510SOL     OW 8970   6.501   7.740   1.845  0.2045  0.1062 -0.5638
 2510SOL    HW1 8971   6.563   7.796   1.799 -0.2663 -0.0185 -1.3734
 2510SOL    HW2 8972   6.544   7.720   1.928  0.7940  0.8636 -0.6763
 2511SOL     OW 8973   3.655   2.897  11.238  0.0394  0.5180  0.3107
 2511SOL    HW1 8974   3.585   2.935  11.291 -1.5332 -0.4668 -0.9456
 2511SOL    HW2 8975   3.643   2.935  11.151  1.6286  0.9702  0.2517
 2512SOL     OW 8976   3.585   6.051   9.243 -0.3036 -0.1001 -0.3102
 2512SOL    HW1 8977   3.515   5.986   9.244  0.0799 -0.5476  1.4413
 2512SOL    HW2 8978   3.661   6.005   9.278  1.0287  0.2621 -2.5337
 2513SOL     OW 8979   2.112   7.372  11.219 -0.6283  0.0405 -0.1436
 2513SOL    HW1 8980   2.145   7.356  11.307  0.9100  0.8132 -0.5472
 2513SOL    HW2 8981   2.078   7.287  11.191 -0.2896 -0.4411  0.8445
 2514SOL     OW 8982   0.465   1.635   1.269  0.3702  0.3528 -0.2045
 2514SOL    HW1 8983   0.524   1.567   1.302  0.4789  0.2726 -0.5658
 2514SOL    HW2 8984   0.379   1.609   1.301  0.5049  0.3877  0.1952
 2515SOL     OW 8985   0.081   1.218   7.066 -0.1295  0.2888  0.0608
 2515SOL    HW1 8986   0.110   1.140   7.019 -1.0331  0.3447 -0.6338
 2515SOL    HW2 8987   0.157   1.247   7.116  0.7566  0.0033 -1.0828
 2516SOL     OW 8988   1.117   1.056  10.491 -0.4773 -0.0926  0.5346
 2516SOL    HW1 8989   1.176   1.117  10.534 -1.0378  0.3542  0.6885
 2516SOL    HW2 8990   1.159   0.971  10.500 -0.1806  0.1212  1.2308
 2517SOL     OW 8991   5.377   1.973   1.798  0.0750  0.6025 -0.1924
 2517SOL    HW1 8992   5.385   2.009   1.887 -1.5912 -1.4877  0.8958
 2517SOL    HW2 8993   5.427   1.892   1.801  0.5857  0.8454 -1.4295
 2518SOL     OW 8994   3.195   6.396   8.316  0.0572 -0.2342  0.6908
 2518SOL    HW1 8995   3.252   6.344   8.259  0.3863 -0.3545  1.1298
 2518SOL    HW2 8996   3.229   6.485   8.308 -1.3814  0.2389 -1.1987
 2519SOL     OW 8997   4.541   5.501   1.728 -1.0983 -0.3412 -0.1704
 2519SOL    HW1 8998   4.581   5.521   1.813  0.0027  1.6620 -1.0733
 2519SOL    HW2 8999   4.611   5.459   1.678 -2.3700 -3.5970  0.5108
 2520SOL     OW 9000   7.784   6.575   0.008  0.1504 -1.0255 -0.2681
 2520SOL    HW1 9001   7.763   6.594   0.099  1.1987  0.4949 -0.3044
 2520SOL    HW2 9002   7.748   6.650  -0.040  2.6896  0.0395 -0.6687
 2521SOL     OW 9003   7.628   1.586   1.390 -0.1436  0.4663 -0.0495
 2521SOL    HW1 9004   7.555   1.634   1.427 -2.0110  0.3077 -3.1493
 2521SOL    HW2 9005   7.589   1.507   1.353  1.8785 -0.4809 -0.3040
 2522SOL     OW 9006   1.046   3.962   3.559  0.1247 -0.6494 -0.6994
 2522SOL    HW1 9007   0.963   3.930   3.526 -0.0771  0.8675 -1.7776
 2522SOL    HW2 9008   1.042   4.057   3.545 -0.0227  0.2173  3.7758
 2523SOL     OW 9009   0.693   3.262  10.513 -0.2452  0.0137  0.1538
 2523SOL    HW1 9010   0.660   3.351  10.518  1.1328  0.4735  1.8392
 2523SOL    HW2 9011   0.756   3.263  10.441 -0.1688  0.4192  0.2265
 2524SOL     OW 9012   6.441   5.704   9.706 -0.4656  0.1254 -0.1739
 2524SOL    HW1 9013   6.450   5.799   9.715  0.7555 -0.0278  0.4854
 2524SOL    HW2 9014   6.413   5.674   9.793 -2.6431  0.0452 -0.8630
 2525SOL     OW 9015   3.751   1.062   8.069 -0.6570 -0.0965 -0.4581
 2525SOL    HW1 9016   3.749   0.971   8.038 -1.5600 -0.1544 -0.2491
 2525SOL    HW2 9017   3.821   1.063   8.134 -0.6766 -0.6633 -0.4188
 2526SOL     OW 9018   1.132   6.234   9.020  0.7019 -0.7240 -1.1754
 2526SOL    HW1 9019   1.154   6.315   8.973  2.7207 -1.7406 -2.1452
 2526SOL    HW2 9020   1.097   6.263   9.104 -0.5652  1.1427 -2.2797
 2527SOL     OW 9021   7.887   1.329   2.949 -0.0738 -0.2113  0.2538
 2527SOL    HW1 9022   7.929   1.359   3.029 -0.6727  0.0560  0.4692
 2527SOL    HW2 9023   7.820   1.267   2.979  1.0423 -1.6687 -0.1688
 2528SOL     OW 9024   6.594   5.845  12.305 -0.4644  0.1594  0.4573
 2528SOL    HW1 9025   6.588   5.893  12.222 -0.1785  1.8875  1.3847
 2528SOL    HW2 9026   6.681   5.865  12.338 -0.5929 -0.4689  1.2125
 2529SOL     OW 9027   2.438   7.011   7.545 -0.3771 -0.7007 -0.2813
 2529SOL    HW1 9028   2.396   6.987   7.628  0.0275 -0.0891  0.1045
 2529SOL    HW2 9029   2.493   6.935   7.525 -0.9389 -1.1125 -0.3121
 2530SOL     OW 9030   0.948   7.237  10.530 -0.1268  0.3756  0.0519
 2530SOL    HW1 9031   1.009   7.271  10.595 -0.5624  1.5588 -0.1337
 2530SOL    HW2 9032   0.871   7.294  10.537 -1.1988 -1.0302  0.2248
 2531SOL     OW 9033   1.020   3.863   3.174 -0.4725 -0.2429  0.0460
 2531SOL    HW1 9034   0.933   3.838   3.143 -0.6311  0.3838 -0.0291
 2531SOL    HW2 9035   1.075   3.861   3.096 -0.2840 -1.1940  0.1919
 2532SOL     OW 9036   7.013   4.670   4.603  0.3980  0.5866 -0.0885
 2532SOL    HW1 9037   7.064   4.664   4.684  0.5289 -0.3505 -0.2320
 2532SOL    HW2 9038   7.020   4.762   4.577  0.4873  0.8636  0.8756
 2533SOL     OW 9039   2.464   6.356   4.732 -0.3319  0.4325  0.2117
 2533SOL    HW1 9040   2.442   6.426   4.794  0.3945  1.5668 -0.7575
 2533SOL    HW2 9041   2.435   6.391   4.647  0.8185 -0.0730 -0.4072
 2534SOL     OW 9042   2.913   4.464  12.086 -0.1068 -0.6422  0.6050
 2534SOL    HW1 9043   2.826   4.425  12.089  0.6592 -2.5342 -0.3236
 2534SOL    HW2 9044   2.962   4.418  12.154  0.4554 -0.3060  0.4354
 2535SOL     OW 9045   4.123   2.487   2.413 -0.3337  0.0102  0.1843
 2535SOL    HW1 9046   4.071   2.429   2.470  0.9617 -1.5062 -0.0952
 2535SOL    HW2 9047   4.213   2.476   2.445  0.0478  1.2446 -0.4374
 2536SOL     OW 9048   3.609   2.205   2.130  0.4506 -0.7360 -0.3017
 2536SOL    HW1 9049   3.688   2.219   2.184  1.1327 -0.1502 -1.4057
 2536SOL    HW2 9050   3.587   2.113   2.143  1.8025 -1.1221 -0.5842
 2537SOL     OW 9051   6.570   6.732   8.771 -0.0782  0.0136 -0.0591
 2537SOL    HW1 9052   6.482   6.714   8.738 -1.1640  2.2179  1.4275
 2537SOL    HW2 9053   6.579   6.675   8.848 -1.8834  2.4768  2.1672
 2538SOL     OW 9054   7.022   3.098   8.343  0.0547 -0.0451  0.0825
 2538SOL    HW1 9055   6.969   3.128   8.270  0.4316 -1.5608 -0.8673
 2538SOL    HW2 9056   6.978   3.018   8.372  0.1033  0.3542  1.3156
 2539SOL     OW 9057   1.402   6.151   4.905  1.0037 -0.3946  0.0872
 2539SOL    HW1 9058   1.485   6.170   4.949  0.9872 -2.5094  1.1599
 2539SOL    HW2 9059   1.336   6.196   4.957  1.3428  0.1167  0.0764
 2540SOL     OW 9060   7.731   7.053   7.032  0.2510  0.7382  0.1399
 2540SOL    HW1 9061   7.715   7.046   7.126  1.7527  2.7144  0.6007
 2540SOL    HW2 9062   7.671   6.989   6.993  1.6694 -2.4229  2.5897
 2541SOL     OW 9063   0.808   2.071   9.115  0.0777  0.5870 -0.0590
 2541SOL    HW1 9064   0.780   2.100   9.202  0.1970 -0.1371  0.2292
 2541SOL    HW2 9065   0.860   1.992   9.132 -0.0307  0.3521 -0.7978
 2542SOL     OW 9066   6.826   4.135  10.888  0.1450  0.0950  0.4158
 2542SOL    HW1 9067   6.742   4.101  10.857  1.0922 -1.4417 -0.5468
 2542SOL    HW2 9068   6.831   4.223  10.850 -0.7471 -0.0278 -0.0150
 2543SOL     OW 9069   1.305   2.770   9.722  0.4367 -0.1859  0.8276
 2543SOL    HW1 9070   1.259   2.800   9.801 -0.3768 -1.5338  0.8941
 2543SOL    HW2 9071   1.327   2.851   9.676 -1.2953  0.5647  1.2039
 2544SOL     OW 9072   6.493   2.391   9.014  0.4023  0.0734 -0.5129
 2544SOL    HW1 9073   6.531   2.474   8.985  1.2398  0.0324  0.3879
 2544SOL    HW2 9074   6.463   2.408   9.103  0.6765 -0.6052 -0.2769
 2545SOL     OW 9075   2.391   2.994   1.677 -0.3922  0.7597  0.4296
 2545SOL    HW1 9076   2.372   3.001   1.584 -1.3714  1.7473  0.6912
 2545SOL    HW2 9077   2.413   2.901   1.690  2.8998  1.1370 -1.3251
 2546SOL     OW 9078   4.283   3.033  12.243 -0.8810  0.7119 -0.1350
 2546SOL    HW1 9079   4.266   3.121  12.207  0.7896  1.4645  0.7602
 2546SOL    HW2 9080   4.197   2.996  12.259 -1.6282  2.2586 -0.3954
 2547SOL     OW 9081   6.845   5.308   6.006 -0.4030 -0.0371  0.7830
 2547SOL    HW1 9082   6.902   5.324   6.081 -0.2979  0.9602  0.5104
 2547SOL    HW2 9083   6.830   5.213   6.006 -3.2153  0.2608  4.0603
 2548SOL     OW 9084   4.540   3.615  10.828 -0.2319 -0.1598  0.7714
 2548SOL    HW1 9085   4.510   3.524  10.819  1.2951 -0.5505 -0.9388
 2548SOL    HW2 9086   4.624   3.609  10.872  1.3833  0.0249 -2.0140
 2549SOL     OW 9087   2.134   0.145   3.426 -0.3302  0.2134  0.0222
 2549SOL    HW1 9088   2.114   0.123   3.335  0.2767  0.4168 -0.1682
 2549SOL    HW2 9089   2.051   0.136   3.472 -0.6802  0.2686 -0.5870
 2550SOL     OW 9090   3.280   0.819   0.773  0.0991  0.1479 -0.2222
 2550SOL    HW1 9091   3.311   0.770   0.850 -0.0045 -3.1567 -2.0648
 2550SOL    HW2 9092   3.360   0.834   0.722  0.0204  1.3010 -0.0147
 2551SOL     OW 9093   6.497   3.484   1.954 -0.1638 -0.2375  0.4037
 2551SOL    HW1 9094   6.526   3.535   1.878 -0.5676 -0.2397  0.2456
 2551SOL    HW2 9095   6.452   3.548   2.009 -0.3295 -0.3455  0.3918
 2552SOL     OW 9096   0.604   3.881  10.073  0.1386  0.5636  0.0196
 2552SOL    HW1 9097   0.598   3.788  10.053  2.0911 -0.1613  2.3892
 2552SOL    HW2 9098   0.516   3.914  10.058 -0.5087 -1.5355 -1.2829
 2553SOL     OW 9099   6.982   4.999  10.393 -0.4943 -0.2343  0.3153
 2553SOL    HW1 9100   6.946   5.025  10.309 -1.2399  0.1987  0.7591
 2553SOL    HW2 9101   7.044   5.068  10.415 -1.3276  0.3951  0.7611
 2554SOL     OW 9102   7.096   4.133   5.051 -0.3981 -0.1227 -0.0775
 2554SOL    HW1 9103   7.040   4.147   5.128  0.2447 -0.3941  0.4543
 2554SOL    HW2 9104   7.099   4.038   5.041 -0.4581 -0.0876 -0.4243
 2555SOL     OW 9105   5.473   0.592   7.648 -0.0297 -0.0941 -0.6393
 2555SOL    HW1 9106   5.506   0.610   7.736 -0.1526 -1.8166 -0.2084
 2555SOL    HW2 9107   5.382   0.619   7.650 -1.3314 -3.9073  1.1802
 2556SOL     OW 9108   0.280   0.582   6.357 -0.4693 -0.4430 -0.0344
 2556SOL    HW1 9109   0.284   0.493   6.390 -0.8616  0.0935  1.5595
 2556SOL    HW2 9110   0.366   0.596   6.316  0.1856 -1.0472  1.0754
 2557SOL     OW 9111   4.967   3.803   9.654 -0.0742  0.5524 -0.4336
 2557SOL    HW1 9112   4.945   3.832   9.742 -2.1879 -0.8600 -0.4358
 2557SOL    HW2 9113   4.901   3.845   9.598 -1.0344 -1.4087 -0.8374
 2558SOL     OW 9114   2.482   0.220  11.300 -0.1863  0.0558 -0.4783
 2558SOL    HW1 9115   2.575   0.210  11.280  0.0560  0.2255  0.4945
 2558SOL    HW2 9116   2.448   0.130  11.303 -0.1550  0.0116 -1.2433
 2559SOL     OW 9117   6.378   2.238   9.543 -0.0998  0.0559 -0.8537
 2559SOL    HW1 9118   6.316   2.304   9.572  1.1350  0.4183  1.2105
 2559SOL    HW2 9119   6.458   2.287   9.522  1.4676 -0.7568  2.5177
 2560SOL     OW 9120   4.681   7.579   8.356  0.1310  0.3250 -0.5982
 2560SOL    HW1 9121   4.612   7.640   8.382 -0.3970 -0.6086  0.2662
 2560SOL    HW2 9122   4.652   7.494   8.389  1.1771 -0.2861 -1.1770
 2561SOL     OW 9123   5.108   7.741   7.017 -0.4406 -0.4846 -0.2427
 2561SOL    HW1 9124   5.021   7.736   6.978 -0.7662 -0.3031  0.4472
 2561SOL    HW2 9125   5.110   7.671   7.082 -0.6374  0.4654  0.8227
 2562SOL     OW 9126   0.128   0.657   8.769 -0.2546 -0.0298 -0.4497
 2562SOL    HW1 9127   0.044   0.663   8.724 -1.2445  2.0852  1.4650
 2562SOL    HW2 9128   0.180   0.729   8.732  0.6795 -1.1616 -1.4311
 2563SOL     OW 9129   1.167   6.220  11.303  1.1259  1.1089 -0.2323
 2563SOL    HW1 9130   1.209   6.165  11.237 -0.9570  1.2736 -1.8427
 2563SOL    HW2 9131   1.185   6.309  11.274 -1.0498  1.1989 -1.6113
 2564SOL     OW 9132   5.242   2.713  10.294  0.3808  0.3209  0.8183
 2564SOL    HW1 9133   5.237   2.764  10.375  1.6565 -0.1467  1.2149
 2564SOL    HW2 9134   5.309   2.758  10.241 -0.2816  0.4942  0.0965
 2565SOL     OW 9135   1.898   7.855   4.096 -0.3424 -0.3140 -0.1360
 2565SOL    HW1 9136   1.950   7.886   4.022  0.5728  1.3972  1.1423
 2565SOL    HW2 9137   1.959   7.805   4.150 -0.4267  0.2629  0.5134
 2566SOL     OW 9138   6.382   0.051   4.436 -0.2224  0.3608 -0.5681
 2566SOL    HW1 9139   6.456   0.093   4.482 -0.1693  0.6593 -0.9180
 2566SOL    HW2 9140   6.422  -0.021   4.388 -0.4179 -0.5490  0.5972
 2567SOL     OW 9141   3.433   4.033   7.185  0.0931 -0.5521  0.0163
 2567SOL    HW1 9142   3.494   3.960   7.175  1.3423  0.3784  0.5615
 2567SOL    HW2 9143   3.465   4.100   7.125 -0.6509 -0.1912  0.0062
 2568SOL     OW 9144   3.253   2.599   3.468 -0.3809  1.1697  0.3515
 2568SOL    HW1 9145   3.261   2.686   3.509  1.4795  0.4697  1.6459
 2568SOL    HW2 9146   3.344   2.570   3.456 -0.9578 -0.4366 -0.4444
 2569SOL     OW 9147   1.507   0.648   0.121  0.4167 -0.0889  0.4091
 2569SOL    HW1 9148   1.444   0.718   0.141  0.6731  0.2200  0.1328
 2569SOL    HW2 9149   1.554   0.634   0.203  1.2307  0.9383  0.1198
 2570SOL     OW 9150   5.520   0.686   2.858 -0.1597 -0.5370  0.8066
 2570SOL    HW1 9151   5.608   0.716   2.836 -0.6654 -0.1328 -0.8066
 2570SOL    HW2 9152   5.533   0.618   2.924  1.1932  1.1268  2.3438
 2571SOL     OW 9153   0.798   3.884   8.682  0.0104  0.2003  0.2415
 2571SOL    HW1 9154   0.834   3.795   8.671 -1.1802 -0.3099  0.3355
 2571SOL    HW2 9155   0.814   3.905   8.774  1.9806  0.8764 -0.1935
 2572SOL     OW 9156   3.069   7.591   4.998 -0.3211  0.1315  0.8745
 2572SOL    HW1 9157   3.032   7.537   4.928 -0.1608 -0.1382  0.9977
 2572SOL    HW2 9158   3.159   7.560   5.009 -0.1717  0.5394  0.8283
 2573SOL     OW 9159   6.042   5.900   7.726 -0.2475  0.7079  0.6322
 2573SOL    HW1 9160   6.045   5.929   7.635  0.3451  1.8056  0.9712
 2573SOL    HW2 9161   6.021   5.980   7.775 -0.3604  0.1709  1.4651
 2574SOL     OW 9162   4.847   4.270   4.234  0.1210  0.3896  0.1552
 2574SOL    HW1 9163   4.793   4.196   4.264  2.8657 -1.7056  0.3415
 2574SOL    HW2 9164   4.826   4.279   4.141  0.1835 -1.0731 -0.0260
 2575SOL     OW 9165   0.027   1.376   3.886  0.1406 -0.4416  0.1070
 2575SOL    HW1 9166   0.091   1.435   3.927  0.4711 -1.4383  1.0931
 2575SOL    HW2 9167   0.081   1.310   3.843 -0.2188 -1.1517  0.7357
 2576SOL     OW 9168   6.887   6.310   6.239  0.5806 -0.2174  0.2598
 2576SOL    HW1 9169   6.853   6.370   6.306  0.6140  0.5425 -0.3775
 2576SOL    HW2 9170   6.818   6.244   6.229  0.9084 -0.7827  1.5738
 2577SOL     OW 9171   1.589   2.009   5.434 -0.1339  0.1263  0.3730
 2577SOL    HW1 9172   1.645   1.932   5.435  1.0153  0.8648 -1.3413
 2577SOL    HW2 9173   1.504   1.978   5.465  0.3450 -1.7698 -0.0815
 2578SOL     OW 9174   4.536   4.208  12.125  0.4739 -0.1193 -0.0967
 2578SOL    HW1 9175   4.461   4.227  12.069  0.5082  1.9804  0.4772
 2578SOL    HW2 9176   4.552   4.114  12.114 -0.9986 -0.2164 -1.7236
 2579SOL     OW 9177   1.738   6.732   4.634 -0.0480  0.2592 -0.0512
 2579SOL    HW1 9178   1.657   6.722   4.585 -0.1305 -0.6855  0.2625
 2579SOL    HW2 9179   1.805   6.693   4.578  0.1721  0.8865 -0.2357
 2580SOL     OW 9180   7.598   5.257   3.270 -0.6543 -0.3781 -0.8423
 2580SOL    HW1 9181   7.512   5.242   3.309  0.6038 -0.5149  2.1523
 2580SOL    HW2 9182   7.642   5.172   3.275  1.4718  0.6810  2.9186
 2581SOL     OW 9183   2.543   7.371  11.358  0.8456 -0.2597  0.2626
 2581SOL    HW1 9184   2.501   7.374  11.444  0.6739  0.7788  0.1649
 2581SOL    HW2 9185   2.513   7.290  11.318  1.1923 -0.9187  1.3170
 2582SOL     OW 9186   4.762   4.999   3.686 -0.4595  0.5165 -0.3258
 2582SOL    HW1 9187   4.808   5.066   3.635 -0.2713  0.0609 -0.7624
 2582SOL    HW2 9188   4.793   4.916   3.650 -3.0175  0.1600 -1.9552
 2583SOL     OW 9189   0.207   1.016   6.876  0.1557 -0.3782 -0.2201
 2583SOL    HW1 9190   0.279   0.993   6.816 -0.3045 -1.5703 -0.3356
 2583SOL    HW2 9191   0.204   0.944   6.938  0.2523  0.5708  0.9257
 2584SOL     OW 9192   5.877   0.056   1.882  0.5208  0.3811 -0.3524
 2584SOL    HW1 9193   5.803   0.090   1.933 -1.6274  1.0165 -3.5668
 2584SOL    HW2 9194   5.841   0.043   1.794  4.2088  0.4090 -2.0422
 2585SOL     OW 9195   5.330   6.446   6.782 -0.1666  0.0828  0.0064
 2585SOL    HW1 9196   5.383   6.368   6.767 -1.2891 -0.5266 -0.9585
 2585SOL    HW2 9197   5.348   6.502   6.706  1.8388  1.5137  1.4444
 2586SOL     OW 9198   7.628   4.550   6.336  0.1040  0.4882  0.2531
 2586SOL    HW1 9199   7.615   4.571   6.243 -0.1768 -0.0697  0.1627
 2586SOL    HW2 9200   7.704   4.602   6.361 -0.5261  1.5423  0.0248
 2587SOL     OW 9201   4.199   1.636   0.880  0.0618 -0.3433  0.0565
 2587SOL    HW1 9202   4.138   1.683   0.823 -0.1077  0.0264  0.5361
 2587SOL    HW2 9203   4.187   1.544   0.858 -1.6098 -0.3942  1.0327
 2588SOL     OW 9204   1.190   3.591   1.266  0.5870  0.0118  0.2885
 2588SOL    HW1 9205   1.269   3.545   1.293  0.5469  0.1308  0.6113
 2588SOL    HW2 9206   1.148   3.617   1.348  1.3125  1.8264  0.1325
 2589SOL     OW 9207   4.902   5.239   4.263  0.3821  0.2673  0.2490
 2589SOL    HW1 9208   4.841   5.277   4.200 -0.0036 -0.8596 -0.0826
 2589SOL    HW2 9209   4.866   5.153   4.282  2.6112 -1.0602 -1.0711
 2590SOL     OW 9210   0.297   3.424   4.118  0.1477 -0.3598 -0.1477
 2590SOL    HW1 9211   0.346   3.396   4.040 -0.1122  0.1711 -0.5057
 2590SOL    HW2 9212   0.207   3.394   4.101 -0.5934  2.2986 -1.4356
 2591SOL     OW 9213   5.615   5.804   4.662 -0.3415 -0.7194  0.3017
 2591SOL    HW1 9214   5.589   5.888   4.625 -0.8536 -1.5191 -1.2109
 2591SOL    HW2 9215   5.695   5.781   4.616  0.1274 -0.8042  1.1339
 2592SOL     OW 9216   1.610   0.493   5.467 -0.3578 -0.4421 -0.4303
 2592SOL    HW1 9217   1.603   0.418   5.526 -2.4977 -1.3248 -1.7184
 2592SOL    HW2 9218   1.638   0.456   5.383 -0.8042  0.2783 -0.9151
 2593SOL     OW 9219   5.657   6.923   5.777 -0.0319  0.2129 -0.2319
 2593SOL    HW1 9220   5.643   6.952   5.687 -1.3648  1.5416  0.3649
 2593SOL    HW2 9221   5.751   6.908   5.783  0.0034 -0.4680 -1.9909
 2594SOL     OW 9222   0.713   3.659   9.837 -0.4502  0.1636  0.0882
 2594SOL    HW1 9223   0.711   3.739   9.785 -0.9967  0.1252  0.0464
 2594SOL    HW2 9224   0.801   3.658   9.875  0.7481 -0.8806 -2.4887
 2595SOL     OW 9225   0.913   2.628   2.388  0.1762 -0.8020 -0.1276
 2595SOL    HW1 9226   0.996   2.581   2.389  0.1350 -0.8747  1.0344
 2595SOL    HW2 9227   0.848   2.563   2.415 -0.1125 -0.4999 -0.0809
 2596SOL     OW 9228   0.418   4.918   6.429 -0.3450  0.0795 -0.3178
 2596SOL    HW1 9229   0.326   4.915   6.456  0.0531  1.9095  1.5298
 2596SOL    HW2 9230   0.415   4.919   6.334 -2.1600 -1.0897 -0.3147
 2597SOL     OW 9231   5.977   7.511   7.694  0.1258 -0.6278 -0.1368
 2597SOL    HW1 9232   6.013   7.493   7.781  0.1322  0.2984  0.0638
 2597SOL    HW2 9233   5.893   7.467   7.693 -1.2487  1.7229  1.4435
 2598SOL     OW 9234   6.741   4.351   8.810  0.1704 -0.1397  0.8048
 2598SOL    HW1 9235   6.696   4.418   8.862 -0.6123  0.6784 -0.8660
 2598SOL    HW2 9236   6.672   4.294   8.778  0.4157  0.3607 -0.7028
 2599SOL     OW 9237   5.870   1.736  12.270 -0.0581  0.3297 -1.0441
 2599SOL    HW1 9238   5.794   1.734  12.212 -0.3257  0.6457 -0.7099
 2599SOL    HW2 9239   5.862   1.656  12.322 -0.1087  0.3133 -1.0769
 2600SOL     OW 9240   4.236   1.790  12.182 -0.2177  0.4514 -0.1393
 2600SOL    HW1 9241   4.293   1.815  12.109  0.2677 -0.3350 -0.0550
 2600SOL    HW2 9242   4.287   1.723  12.229 -1.0726 -0.0082  0.1487
 2601SOL     OW 9243   6.938   0.168   2.789  0.0820 -0.0126 -0.2135
 2601SOL    HW1 9244   6.861   0.190   2.736 -0.1499 -1.6933 -0.6401
 2601SOL    HW2 9245   6.968   0.252   2.825 -2.3316  0.6366  0.4792
 2602SOL     OW 9246   0.009   1.081   1.471 -0.3972 -0.0970  0.1426
 2602SOL    HW1 9247   0.066   1.157   1.456  0.7510 -1.2330 -1.6867
 2602SOL    HW2 9248  -0.071   1.101   1.424 -0.0510 -0.0468 -0.4387
 2603SOL     OW 9249   7.126   2.731   0.190  0.2180 -0.1326  0.2321
 2603SOL    HW1 9250   7.142   2.735   0.284 -0.5038  2.0462  0.3155
 2603SOL    HW2 9251   7.207   2.766   0.150  0.2733 -0.4425  0.0689
 2604SOL     OW 9252   7.166   1.256   9.614  0.6032 -0.2655  0.1053
 2604SOL    HW1 9253   7.254   1.294   9.612  0.0351  1.0934 -1.4478
 2604SOL    HW2 9254   7.108   1.331   9.632 -0.5542 -0.2830 -2.9236
 2605SOL     OW 9255   4.387   1.402  10.129 -0.2690  0.6310  0.4744
 2605SOL    HW1 9256   4.438   1.483  10.124 -0.0031  0.4380  0.0550
 2605SOL    HW2 9257   4.303   1.429  10.165 -0.3287  1.1589 -0.0540
 2606SOL     OW 9258   2.988   1.387   0.905 -0.3063  0.0863  0.6687
 2606SOL    HW1 9259   2.997   1.295   0.879 -1.2366  0.4818 -1.2439
 2606SOL    HW2 9260   3.074   1.410   0.942 -0.0428 -1.5165  1.1132
 2607SOL     OW 9261   6.158   3.232   3.348 -0.3507 -0.2901  0.5367
 2607SOL    HW1 9262   6.124   3.306   3.298  0.2412 -0.1458  0.3412
 2607SOL    HW2 9263   6.134   3.251   3.439 -1.6385 -0.6675  0.3024
 2608SOL     OW 9264   1.699   1.598  11.237  0.2839  0.1332  0.3518
 2608SOL    HW1 9265   1.697   1.662  11.166  1.1285  1.2744  1.3150
 2608SOL    HW2 9266   1.657   1.642  11.311 -0.3334 -0.9292  0.6489
 2609SOL     OW 9267   2.279   7.153   2.101  0.2393 -0.1707 -0.9194
 2609SOL    HW1 9268   2.307   7.244   2.095 -0.2005 -0.0003 -0.3661
 2609SOL    HW2 9269   2.264   7.127   2.010  3.4495 -0.6773 -1.4466
 2610SOL     OW 9270   0.284   4.103  11.544  0.1527  0.4396  0.4439
 2610SOL    HW1 9271   0.191   4.084  11.531  0.1383  1.4902 -1.3528
 2610SOL    HW2 9272   0.285   4.167  11.616 -0.7656  2.0547 -0.8901
 2611SOL     OW 9273   1.956   6.114   1.810  0.4642 -0.2650  0.2992
 2611SOL    HW1 9274   1.896   6.060   1.759 -0.6232  3.1193 -2.4470
 2611SOL    HW2 9275   2.042   6.075   1.796 -0.3993 -2.1008 -0.2302
 2612SOL     OW 9276   3.786   2.991  10.365  0.0842 -0.3963  0.0315
 2612SOL    HW1 9277   3.821   2.911  10.405  1.5565  0.0574 -0.2826
 2612SOL    HW2 9278   3.848   3.059  10.390 -1.0668  0.6383  0.1609
 2613SOL     OW 9279   3.123   6.221  12.163  0.4001 -0.3199 -0.1268
 2613SOL    HW1 9280   3.084   6.143  12.203  0.0796 -0.8513 -1.4220
 2613SOL    HW2 9281   3.048   6.277  12.142  0.4449 -0.6460 -1.1918
 2614SOL     OW 9282   1.172   6.327   4.662 -0.2775 -0.0932  0.2230
 2614SOL    HW1 9283   1.120   6.383   4.604  0.2618 -0.0173 -0.1944
 2614SOL    HW2 9284   1.165   6.368   4.748  1.8185  1.8746 -0.4366
 2615SOL     OW 9285   1.309   2.236   0.663  0.3611 -0.2569  0.0809
 2615SOL    HW1 9286   1.261   2.182   0.600  0.3789  1.7838 -1.8007
 2615SOL    HW2 9287   1.401   2.229   0.636  0.8383 -1.8473  1.8937
 2616SOL     OW 9288   0.609   1.684   6.666  0.3941  0.2742  0.4391
 2616SOL    HW1 9289   0.520   1.694   6.632  0.9258  2.7083 -0.4068
 2616SOL    HW2 9290   0.638   1.599   6.632 -1.6056 -0.6231  0.8381
 2617SOL     OW 9291   4.912   3.961   2.333 -0.2959 -0.2742  0.7691
 2617SOL    HW1 9292   4.824   3.972   2.369 -0.0360  0.8133  1.1122
 2617SOL    HW2 9293   4.970   3.977   2.407  0.2135  0.2199  0.2687
 2618SOL     OW 9294   2.897   2.091   5.064 -0.0735  0.0206 -0.3821
 2618SOL    HW1 9295   2.812   2.110   5.025 -0.3173 -0.1053  0.0748
 2618SOL    HW2 9296   2.916   2.001   5.038  0.9573  0.7483 -2.3243
 2619SOL     OW 9297   4.890   7.718   2.155  0.2052  0.4341 -0.5154
 2619SOL    HW1 9298   4.816   7.756   2.109 -0.8720  0.1091  0.9024
 2619SOL    HW2 9299   4.861   7.710   2.246  1.5474 -0.7965 -0.1599
 2620SOL     OW 9300   7.237   0.492   3.368  0.1288 -0.1996  0.1785
 2620SOL    HW1 9301   7.230   0.479   3.273  1.0880  0.3153  0.0240
 2620SOL    HW2 9302   7.266   0.582   3.378 -0.4361 -0.1027  0.9920
 2621SOL     OW 9303   6.916   7.350  10.605 -0.3769  0.4575 -0.0265
 2621SOL    HW1 9304   6.843   7.293  10.583 -0.7363  0.3815  1.2820
 2621SOL    HW2 9305   6.982   7.333  10.538 -0.8584 -0.8018 -0.1874
 2622SOL     OW 9306   6.403   7.898  10.743 -0.1430  0.3073  0.6084
 2622SOL    HW1 9307   6.418   7.992  10.757 -0.8780  0.4876  0.2390
 2622SOL    HW2 9308   6.445   7.880  10.659 -2.5723  0.9994 -0.8544
 2623SOL     OW 9309   4.295   4.497   9.871 -0.3079 -0.5457 -0.3461
 2623SOL    HW1 9310   4.229   4.558   9.838  0.1921 -0.1898 -0.7009
 2623SOL    HW2 9311   4.244   4.425   9.909 -0.9291  0.4930  0.8866
 2624SOL     OW 9312   4.518   0.199   6.683  0.5126 -0.2123  0.3420
 2624SOL    HW1 9313   4.556   0.188   6.770 -0.1411  0.5636  0.7430
 2624SOL    HW2 9314   4.428   0.226   6.700  1.0441  2.4340 -0.5092
 2625SOL     OW 9315   6.001   6.288   0.935 -0.1794 -0.4156  0.3855
 2625SOL    HW1 9316   6.058   6.340   0.992 -1.0309 -1.4728  2.2891
 2625SOL    HW2 9317   5.951   6.353   0.885  2.1336  0.5341 -0.8723
 2626SOL     OW 9318   3.632   4.106   6.900 -0.1068  0.0465 -0.1841
 2626SOL    HW1 9319   3.692   4.071   6.834  0.6130  0.7261  0.0886
 2626SOL    HW2 9320   3.546   4.103   6.859  0.2363 -0.1759 -0.8960
 2627SOL     OW 9321   0.559   1.096   6.695 -0.1712  0.2850 -0.2796
 2627SOL    HW1 9322   0.533   1.136   6.612 -2.1395 -0.1361  0.0686
 2627SOL    HW2 9323   0.508   1.144   6.761 -0.9038 -1.2917  0.3565
 2628SOL     OW 9324   5.581   3.992   0.528 -0.3774  0.4594 -0.1756
 2628SOL    HW1 9325   5.566   3.906   0.487 -1.4717  1.1335 -1.2481
 2628SOL    HW2 9326   5.676   4.005   0.521 -0.5577  0.9047 -3.3483
 2629SOL     OW 9327   2.107   1.531   7.370 -0.0447  0.2069  0.0317
 2629SOL    HW1 9328   2.080   1.465   7.307  0.1129  1.0005 -0.9017
 2629SOL    HW2 9329   2.035   1.594   7.372 -0.0755  0.1591  0.6994
 2630SOL     OW 9330   4.756   3.156   3.794  0.4187 -0.0291 -0.2363
 2630SOL    HW1 9331   4.741   3.126   3.883 -0.9529 -0.5773 -0.6406
 2630SOL    HW2 9332   4.682   3.214   3.774  0.3014 -0.5060 -1.2749
 2631SOL     OW 9333   7.499   1.562  11.666 -1.2129 -0.2074  0.2508
 2631SOL    HW1 9334   7.426   1.624  11.675 -1.4878 -0.5556  0.4458
 2631SOL    HW2 9335   7.533   1.552  11.755 -0.5598  0.3864  0.0792
 2632SOL     OW 9336   2.122   7.221   3.800 -0.3373 -0.2532 -0.0910
 2632SOL    HW1 9337   2.075   7.145   3.834  0.9637 -0.7367  0.6917
 2632SOL    HW2 9338   2.147   7.195   3.711 -0.4613 -0.4781 -0.0627
 2633SOL     OW 9339   0.376   6.110   7.102 -0.1303  0.0393 -0.4049
 2633SOL    HW1 9340   0.354   6.200   7.077 -1.4773 -0.7766 -2.3453
 2633SOL    HW2 9341   0.422   6.074   7.026  1.3041 -0.6311  0.7397
 2634SOL     OW 9342   3.581   6.271   9.394 -0.6366  0.5774 -0.0475
 2634SOL    HW1 9343   3.573   6.201   9.329  1.4384 -0.3736  0.6114
 2634SOL    HW2 9344   3.614   6.346   9.345  2.1828 -0.5124 -0.0065
 2635SOL     OW 9345   1.323   2.407   2.723 -0.3571 -0.3355 -0.0287
 2635SOL    HW1 9346   1.312   2.324   2.770  0.5850  0.5415  1.8705
 2635SOL    HW2 9347   1.330   2.473   2.792 -0.1866  1.2249 -1.4646
 2636SOL     OW 9348   6.056   4.702   8.703  0.0384 -1.3750  0.0734
 2636SOL    HW1 9349   5.992   4.769   8.727  1.1047 -0.5863  0.8279
 2636SOL    HW2 9350   6.103   4.684   8.785  0.7249 -1.9930 -0.4450
 2637SOL     OW 9351   3.364   5.365  10.401  0.1397  0.4106  0.1126
 2637SOL    HW1 9352   3.289   5.335  10.349 -0.7549  1.2779  0.8626
 2637SOL    HW2 9353   3.403   5.285  10.435  0.2811 -0.1257 -1.2492
 2638SOL     OW 9354   6.927   0.251   8.003  0.0248  0.1235  0.2761
 2638SOL    HW1 9355   6.899   0.168   7.966  1.6306 -0.0266 -0.6835
 2638SOL    HW2 9356   6.881   0.317   7.952  0.8231 -0.1326 -0.8085
 2639SOL     OW 9357   6.706   0.147   0.500 -0.0758  0.1980 -0.6790
 2639SOL    HW1 9358   6.772   0.129   0.434  1.0208 -0.0631  0.4518
 2639SOL    HW2 9359   6.656   0.221   0.465  0.3322 -0.0845 -1.8784
 2640SOL     OW 9360   2.293   2.921   6.642  0.7238 -0.7436  0.1793
 2640SOL    HW1 9361   2.325   3.002   6.680  1.3441 -0.9001 -0.0001
 2640SOL    HW2 9362   2.362   2.893   6.582  0.8378 -1.7715  0.7736
 2641SOL     OW 9363   1.158   0.464   1.193  0.5288  0.2160 -0.3948
 2641SOL    HW1 9364   1.250   0.438   1.197  0.1137 -1.2955  0.0068
 2641SOL    HW2 9365   1.147   0.523   1.268  1.0108 -0.1847  0.0043
 2642SOL     OW 9366   1.152   1.282   7.542  0.0859 -0.2730  0.0094
 2642SOL    HW1 9367   1.164   1.196   7.584 -1.3596  0.4086  2.0145
 2642SOL    HW2 9368   1.229   1.332   7.568 -0.0450 -0.3548  0.5896
 2643SOL     OW 9369   4.509   1.588   8.861  0.1686  0.1100 -0.1888
 2643SOL    HW1 9370   4.448   1.515   8.869  0.5857 -0.4389 -1.6892
 2643SOL    HW2 9371   4.557   1.590   8.943  0.1740 -1.3313 -0.1459
 2644SOL     OW 9372   6.215   1.504   2.066 -0.1015 -0.3665  0.0757
 2644SOL    HW1 9373   6.138   1.449   2.081 -1.2756  1.2822  0.4114
 2644SOL    HW2 9374   6.186   1.592   2.089  2.6098  0.0054  2.6601
 2645SOL     OW 9375   6.123   0.230   5.044 -0.0071  0.4164  0.0344
 2645SOL    HW1 9376   6.086   0.168   5.107 -0.3386  3.0647  2.7098
 2645SOL    HW2 9377   6.049   0.254   4.988 -0.3177 -0.2129  0.1570
 2646SOL     OW 9378   5.696   7.671   8.819 -0.1591 -0.5844 -0.0916
 2646SOL    HW1 9379   5.620   7.663   8.877 -1.1398  2.4244 -0.8193
 2646SOL    HW2 9380   5.757   7.726   8.868 -0.3977  0.7965 -1.3123
 2647SOL     OW 9381   5.189   3.151   5.684 -0.0159 -0.3237 -0.4149
 2647SOL    HW1 9382   5.141   3.211   5.741  1.8329 -0.2956  1.2129
 2647SOL    HW2 9383   5.265   3.202   5.655  0.1980 -1.0463 -1.1517
 2648SOL     OW 9384   1.372   2.138   6.961 -0.0204 -0.1560  0.2626
 2648SOL    HW1 9385   1.325   2.195   6.901  0.7796  0.6753  0.3999
 2648SOL    HW2 9386   1.462   2.139   6.930 -0.0791 -1.8409 -0.0840
 2649SOL     OW 9387   2.682   3.246   3.389 -0.0014  0.2176 -0.4331
 2649SOL    HW1 9388   2.655   3.328   3.430  0.4474  0.0507  0.2128
 2649SOL    HW2 9389   2.672   3.261   3.295  0.5631  1.1795 -0.3445
 2650SOL     OW 9390   6.268   5.983   9.291  0.2687 -0.2993 -0.4684
 2650SOL    HW1 9391   6.316   5.904   9.266 -0.0663 -1.1714  1.5217
 2650SOL    HW2 9392   6.205   5.954   9.357  2.3830  2.0714  2.9393
 2651SOL     OW 9393   4.226   4.285   1.389 -0.0603  0.3598 -0.4770
 2651SOL    HW1 9394   4.167   4.228   1.437  0.1250  0.5397 -0.0352
 2651SOL    HW2 9395   4.293   4.311   1.452 -1.1506  2.5648 -0.1125
 2652SOL     OW 9396   3.892   1.179   1.638  0.5219  0.5754  0.0685
 2652SOL    HW1 9397   3.829   1.195   1.568 -0.0014  0.7878  0.5893
 2652SOL    HW2 9398   3.868   1.094   1.674  0.2818  0.8374  0.5335
 2653SOL     OW 9399   4.581   2.992   3.575  0.1836  0.2849 -0.2400
 2653SOL    HW1 9400   4.503   3.019   3.526 -1.7839 -0.1907  2.3815
 2653SOL    HW2 9401   4.612   2.914   3.529 -1.7222 -0.2893 -0.6633
 2654SOL     OW 9402   5.551   1.967   9.153 -0.5506  0.3172  0.3619
 2654SOL    HW1 9403   5.566   2.059   9.132 -0.5543  0.1196 -0.5557
 2654SOL    HW2 9404   5.636   1.925   9.138 -1.0095 -0.1464 -1.1265
 2655SOL     OW 9405   5.939   6.080   5.840  0.7061  0.2877 -0.2944
 2655SOL    HW1 9406   5.906   6.104   5.753  0.0665 -0.3830 -0.2426
 2655SOL    HW2 9407   5.926   6.159   5.893  2.2086  1.1026 -1.0995
 2656SOL     OW 9408   0.269   0.970   2.434  0.2718  0.4393  0.1838
 2656SOL    HW1 9409   0.254   1.042   2.372 -2.3076 -0.3412 -0.2314
 2656SOL    HW2 9410   0.340   1.001   2.490 -0.0068  2.8420 -0.6670
 2657SOL     OW 9411   0.785   0.262   9.145  0.4479  0.0429 -0.3694
 2657SOL    HW1 9412   0.803   0.337   9.089 -0.1545 -0.0562 -0.7073
 2657SOL    HW2 9413   0.718   0.293   9.207  2.9012  0.9558  2.0304
 2658SOL     OW 9414   4.391   0.580   5.058  0.1402 -0.0511  0.1564
 2658SOL    HW1 9415   4.406   0.540   4.972  0.4431 -2.9407  1.4568
 2658SOL    HW2 9416   4.297   0.598   5.059  0.2980  0.9805 -1.1260
 2659SOL     OW 9417   5.461   4.259   5.937  0.1902  0.1002 -0.2717
 2659SOL    HW1 9418   5.473   4.189   6.000  0.2030 -1.6292 -2.0782
 2659SOL    HW2 9419   5.366   4.269   5.929  0.1855  0.1047 -0.2099
 2660SOL     OW 9420   2.623   6.729  10.406  0.3977 -0.0427  0.1192
 2660SOL    HW1 9421   2.707   6.693  10.437  0.3246 -0.0935  0.2636
 2660SOL    HW2 9422   2.582   6.656  10.360  0.0336 -0.3058  0.8337
 2661SOL     OW 9423   5.628   4.143   2.332 -0.3099  0.1345 -0.3561
 2661SOL    HW1 9424   5.631   4.061   2.284  0.2893  0.1136 -0.2969
 2661SOL    HW2 9425   5.572   4.200   2.279 -0.2780 -0.1356 -0.6831
 2662SOL     OW 9426   7.455   0.914   4.593  0.2240 -1.0641  0.3509
 2662SOL    HW1 9427   7.486   0.833   4.634  1.2863 -0.0076  1.7726
 2662SOL    HW2 9428   7.430   0.970   4.667  3.5570  1.4824 -0.2016
 2663SOL     OW 9429   7.201   5.352   8.271  0.4565  0.6851  0.0558
 2663SOL    HW1 9430   7.141   5.425   8.286  0.5099  1.0015 -1.2159
 2663SOL    HW2 9431   7.162   5.279   8.319 -0.3353  1.1818  0.1897
 2664SOL     OW 9432   1.482   0.466   3.526  0.1304 -0.0376  0.2788
 2664SOL    HW1 9433   1.509   0.434   3.612  0.1824 -0.0987  0.2398
 2664SOL    HW2 9434   1.469   0.387   3.474  2.6782  0.0198 -0.5596
 2665SOL     OW 9435   6.224   5.366   8.490  0.0694  0.3769 -0.5244
 2665SOL    HW1 9436   6.166   5.415   8.432 -0.6871  0.7431  0.5134
 2665SOL    HW2 9437   6.306   5.357   8.440 -1.0220 -0.6076 -2.2306
 2666SOL     OW 9438   4.920   4.774  11.794 -0.7620 -0.2013  0.7612
 2666SOL    HW1 9439   4.851   4.835  11.818 -0.8169 -0.1013  0.3601
 2666SOL    HW2 9440   4.874   4.695  11.767 -0.8394  0.4309 -1.1865
 2667SOL     OW 9441   4.655   3.553   4.859 -0.2529 -0.2567  0.1882
 2667SOL    HW1 9442   4.670   3.648   4.857  0.6660 -0.3680  1.1390
 2667SOL    HW2 9443   4.569   3.542   4.819  0.0357  0.8861 -0.7967
 2668SOL     OW 9444   2.162   0.062   5.983  0.3183 -0.6755  0.3531
 2668SOL    HW1 9445   2.240   0.114   5.962 -0.3813 -0.2606 -1.4439
 2668SOL    HW2 9446   2.195  -0.016   6.026  1.5951  0.1600  0.9380
 2669SOL     OW 9447   0.507   3.876   9.199 -0.5729 -0.0492 -0.1074
 2669SOL    HW1 9448   0.464   3.962   9.195  1.3739  0.9311 -1.3886
 2669SOL    HW2 9449   0.600   3.895   9.189 -0.1306 -2.3585 -1.0258
 2670SOL     OW 9450   3.121   2.044   7.833 -0.4729  0.1261  0.2800
 2670SOL    HW1 9451   3.036   2.082   7.856 -0.9934 -0.7757 -0.0809
 2670SOL    HW2 9452   3.170   2.044   7.915 -1.1763 -0.2334  0.7133
 2671SOL     OW 9453   7.920   5.177  12.322 -0.1211 -0.1699 -0.4602
 2671SOL    HW1 9454   7.998   5.125  12.338  0.5147  1.2442  1.4544
 2671SOL    HW2 9455   7.865   5.122  12.267  2.0886 -1.3203 -1.6546
 2672SOL     OW 9456   7.686   6.586   8.353  0.0416  0.2451 -0.5479
 2672SOL    HW1 9457   7.606   6.564   8.401 -0.4593 -0.0060 -1.4645
 2672SOL    HW2 9458   7.676   6.679   8.331 -1.2189 -0.3273 -2.7943
 2673SOL     OW 9459   2.170   5.987   9.123 -0.0576  0.4021  0.3494
 2673SOL    HW1 9460   2.154   6.056   9.058 -2.0092  0.6329  1.0183
 2673SOL    HW2 9461   2.259   6.002   9.153  0.7881  0.4981 -2.0174
 2674SOL     OW 9462   3.194   6.205   1.862  0.2676  0.7388  0.4910
 2674SOL    HW1 9463   3.181   6.115   1.893 -0.8581  1.0226  0.8971
 2674SOL    HW2 9464   3.107   6.244   1.865  0.2270  1.0626 -2.2257
 2675SOL     OW 9465   2.401   2.524   7.755  0.3485 -0.3408 -0.3852
 2675SOL    HW1 9466   2.477   2.486   7.711 -0.1604 -3.6563  1.2805
 2675SOL    HW2 9467   2.333   2.526   7.687  1.1062 -0.0589 -1.1526
 2676SOL     OW 9468   6.916   1.655   0.909  0.3155 -0.1338  0.5288
 2676SOL    HW1 9469   7.009   1.671   0.925 -0.2394  2.7026  1.5719
 2676SOL    HW2 9470   6.890   1.726   0.849 -0.9659 -1.5775 -0.7233
 2677SOL     OW 9471   4.354   5.127  10.669  0.2564 -0.3300  0.4008
 2677SOL    HW1 9472   4.421   5.175  10.718  3.0651  0.2373 -3.4866
 2677SOL    HW2 9473   4.311   5.194  10.616 -0.9324 -1.2079  0.2181
 2678SOL     OW 9474   1.880   2.575   3.409  0.2259 -0.3394  0.3779
 2678SOL    HW1 9475   1.965   2.566   3.453 -0.2376 -4.7342  0.8008
 2678SOL    HW2 9476   1.816   2.568   3.479 -0.5544  1.4153 -0.1222
 2679SOL     OW 9477   7.324   3.732   9.400  0.0340 -0.0248 -0.1299
 2679SOL    HW1 9478   7.283   3.681   9.471  1.2045 -1.2044 -0.2647
 2679SOL    HW2 9479   7.352   3.813   9.442 -0.6874 -0.0290  0.3899
 2680SOL     OW 9480   0.175   2.606   1.706 -0.4833  0.2202 -0.2759
 2680SOL    HW1 9481   0.258   2.615   1.659  0.6351  2.1485  1.8956
 2680SOL    HW2 9482   0.152   2.513   1.696  1.4867 -0.1985 -1.5887
 2681SOL     OW 9483   5.982   4.471   1.305 -0.6068  0.2234  0.6859
 2681SOL    HW1 9484   5.949   4.465   1.215 -3.9312 -0.3551  1.8014
 2681SOL    HW2 9485   6.076   4.454   1.297 -1.2242 -3.0166 -2.3657
 2682SOL     OW 9486   7.923   2.330   7.019 -0.3785  0.0035 -0.0120
 2682SOL    HW1 9487   7.923   2.357   7.111 -1.9728 -0.0931  0.0406
 2682SOL    HW2 9488   7.851   2.379   6.980 -1.0276 -1.4656 -0.7369
 2683SOL     OW 9489   1.730   3.670   3.391 -0.3346 -0.1473  0.2136
 2683SOL    HW1 9490   1.767   3.724   3.321 -0.7894 -0.4029 -0.2361
 2683SOL    HW2 9491   1.752   3.715   3.472  0.9026 -0.2572 -0.0433
 2684SOL     OW 9492   3.972   1.920   5.022 -0.3486  0.0448 -0.0772
 2684SOL    HW1 9493   3.947   1.831   5.047 -0.0229 -0.3634 -1.1662
 2684SOL    HW2 9494   4.048   1.940   5.076 -0.9818  0.0255  0.8417
 2685SOL     OW 9495   1.912   5.579   9.713 -0.0384 -0.3484  0.4106
 2685SOL    HW1 9496   1.980   5.532   9.664 -0.2125 -0.2132  0.0346
 2685SOL    HW2 9497   1.905   5.531   9.796  1.2636  0.2666  0.9015
 2686SOL     OW 9498   7.855   5.145   6.461 -0.6164  0.4554 -0.1108
 2686SOL    HW1 9499   7.785   5.160   6.525  0.3620 -2.0434  1.7239
 2686SOL    HW2 9500   7.935   5.154   6.512  0.2538 -0.5216 -1.2544
 2687SOL     OW 9501   5.250   3.332  12.229 -0.1160 -0.0130  0.0105
 2687SOL    HW1 9502   5.238   3.278  12.307  0.7187 -0.3459 -0.0753
 2687SOL    HW2 9503   5.340   3.313  12.200 -0.5922 -0.3304 -1.3517
 2688SOL     OW 9504   1.709   5.134   3.938 -0.1990 -0.0774  0.6275
 2688SOL    HW1 9505   1.734   5.046   3.968  2.4023 -0.2827 -1.7694
 2688SOL    HW2 9506   1.789   5.186   3.945 -1.4646  1.9016  1.1275
 2689SOL     OW 9507   5.099   0.099   6.734  0.4716 -0.4064  0.2165
 2689SOL    HW1 9508   5.101   0.102   6.639  2.1536 -3.3829  0.0299
 2689SOL    HW2 9509   5.072   0.009   6.755  0.8020 -0.0494  2.5401
 2690SOL     OW 9510   2.077   1.666  10.077  0.4332  0.6115  0.3987
 2690SOL    HW1 9511   2.128   1.591  10.107 -1.0739 -0.8078 -0.3513
 2690SOL    HW2 9512   2.020   1.688  10.151 -1.6505 -1.3929 -0.4722
 2691SOL     OW 9513   0.383   7.537   3.848  0.6279 -0.7959  0.5403
 2691SOL    HW1 9514   0.444   7.577   3.786  0.1187  1.1630  1.2495
 2691SOL    HW2 9515   0.437   7.514   3.924  0.8255 -0.9972  0.3416
 2692SOL     OW 9516   4.751   5.645   8.121 -0.3559 -0.4757 -0.2252
 2692SOL    HW1 9517   4.720   5.650   8.212 -0.1267  0.6658 -0.1938
 2692SOL    HW2 9518   4.827   5.703   8.119 -0.5738 -0.2088 -1.2325
 2693SOL     OW 9519   2.403   6.509  10.714 -0.8263  0.2835  0.1099
 2693SOL    HW1 9520   2.492   6.488  10.743 -0.8607 -0.5025 -0.3161
 2693SOL    HW2 9521   2.369   6.426  10.681 -1.0514  0.9790 -1.4756
 2694SOL     OW 9522   4.034   1.228   6.060 -0.0689 -0.5018 -0.2454
 2694SOL    HW1 9523   3.950   1.265   6.033 -0.4971 -1.2869 -0.0220
 2694SOL    HW2 9524   4.094   1.303   6.062 -1.0739  0.2994  0.8806
 2695SOL     OW 9525   6.610   6.078   3.523  0.2299 -0.1004 -0.3231
 2695SOL    HW1 9526   6.521   6.045   3.517 -0.1401  0.9807 -1.1644
 2695SOL    HW2 9527   6.621   6.098   3.616 -0.5545  0.1247 -0.2666
 2696SOL     OW 9528   7.354   4.339   8.743 -1.0511  0.4987 -0.2685
 2696SOL    HW1 9529   7.300   4.330   8.821 -0.8581 -0.4148 -0.2256
 2696SOL    HW2 9530   7.294   4.325   8.670 -1.0879  0.6054 -0.2590
 2697SOL     OW 9531   3.555   3.916   3.632  0.5594  0.1324  0.0061
 2697SOL    HW1 9532   3.563   3.823   3.610  0.8630  0.0401  0.4873
 2697SOL    HW2 9533   3.468   3.923   3.672  0.5431  0.0532 -0.0154
 2698SOL     OW 9534   0.787   0.343   6.955  0.5364  0.5243  0.3334
 2698SOL    HW1 9535   0.749   0.326   6.869  0.9565 -0.0690  0.2539
 2698SOL    HW2 9536   0.881   0.330   6.941  0.6014  0.4111  0.8839
 2699SOL     OW 9537   3.270   5.019   0.498 -0.2487  0.2445 -0.5574
 2699SOL    HW1 9538   3.295   4.972   0.419 -0.5867 -0.2660 -0.3660
 2699SOL    HW2 9539   3.337   4.995   0.562 -0.0900  0.4969 -0.6248
 2700SOL     OW 9540   7.348   4.896   9.640  0.5133 -0.5249  0.0185
 2700SOL    HW1 9541   7.379   4.807   9.653  1.3613 -0.4554 -1.3679
 2700SOL    HW2 9542   7.403   4.950   9.696 -0.4173 -0.9059  1.3482
 2701SOL     OW 9543   3.378   2.111   2.683 -0.2389 -0.2443 -0.0142
 2701SOL    HW1 9544   3.307   2.081   2.739 -2.4099  1.3274 -1.7684
 2701SOL    HW2 9545   3.350   2.197   2.652  0.4527 -1.2541 -3.9992
 2702SOL     OW 9546   1.077   7.860   1.480 -0.6152 -0.0100 -0.1386
 2702SOL    HW1 9547   1.042   7.940   1.440  0.6886  0.9289  0.5432
 2702SOL    HW2 9548   1.153   7.889   1.530 -0.7245 -1.5362  0.9812
 2703SOL     OW 9549   6.624   1.313   5.912  0.1760 -0.0435 -0.5072
 2703SOL    HW1 9550   6.620   1.222   5.940  0.1031 -0.2360 -1.1396
 2703SOL    HW2 9551   6.705   1.347   5.951 -0.3172 -0.0892  0.5720
 2704SOL     OW 9552   4.408   5.719   4.841 -0.5694  0.4410 -0.1782
 2704SOL    HW1 9553   4.471   5.739   4.910 -0.1007 -1.9909  0.1853
 2704SOL    HW2 9554   4.461   5.684   4.769 -1.4366 -1.3367  0.0054
 2705SOL     OW 9555   7.371   1.015  11.542 -0.7403  0.1196  0.1905
 2705SOL    HW1 9556   7.445   1.070  11.517 -0.5423 -0.6776 -1.0597
 2705SOL    HW2 9557   7.380   1.003  11.636  0.8973 -0.1981  0.0216
 2706SOL     OW 9558   1.040   0.805  10.969 -0.6313 -0.1697  0.5001
 2706SOL    HW1 9559   0.978   0.874  10.946 -0.0810 -0.1766 -1.1232
 2706SOL    HW2 9560   1.041   0.747  10.893  1.5392 -0.0410  0.3652
 2707SOL     OW 9561   0.114   1.279   8.639  0.0223 -0.2186  0.3474
 2707SOL    HW1 9562   0.160   1.300   8.557  1.8456 -0.0424  1.3673
 2707SOL    HW2 9563   0.072   1.195   8.621  1.7951 -1.0215 -0.2651
 2708SOL     OW 9564   0.296   7.907   2.361 -0.1063  0.7321 -0.0398
 2708SOL    HW1 9565   0.239   7.841   2.401 -0.0441  1.3642  1.1631
 2708SOL    HW2 9566   0.327   7.867   2.281 -1.1407 -0.1697 -0.0136
 2709SOL     OW 9567   4.272   0.311   7.731  0.5266 -0.1022  0.1172
 2709SOL    HW1 9568   4.286   0.400   7.698  0.9121  0.2133  1.1182
 2709SOL    HW2 9569   4.343   0.260   7.692 -0.5970 -0.3568 -1.7659
 2710SOL     OW 9570   3.751   7.300   5.079 -0.1844  0.1120  0.2094
 2710SOL    HW1 9571   3.786   7.389   5.077 -2.0311  0.9017  0.9978
 2710SOL    HW2 9572   3.810   7.252   5.136  0.6594  0.8982  0.0244
 2711SOL     OW 9573   5.726   1.602   8.534 -0.0021 -0.2015  0.4668
 2711SOL    HW1 9574   5.772   1.536   8.483  0.7822  0.3027  0.5024
 2711SOL    HW2 9575   5.637   1.603   8.498  0.4437 -0.1013 -0.6585
 2712SOL     OW 9576   0.209   1.268   8.171 -0.4602  0.2468 -0.0488
 2712SOL    HW1 9577   0.186   1.234   8.257 -3.0390  2.4968  0.3091
 2712SOL    HW2 9578   0.184   1.199   8.110 -1.6279 -0.1690  0.8538
 2713SOL     OW 9579   6.698   0.456   6.593 -0.3340 -0.3674 -0.4322
 2713SOL    HW1 9580   6.736   0.406   6.666  1.2936  0.9517 -0.3091
 2713SOL    HW2 9581   6.742   0.422   6.515 -2.0519 -1.7565 -0.8656
 2714SOL     OW 9582   7.914   3.568   5.122  0.2896  0.2614 -0.0727
 2714SOL    HW1 9583   7.897   3.586   5.214  1.5684  0.2701  0.1789
 2714SOL    HW2 9584   7.835   3.599   5.077 -1.2100 -1.4954  1.1722
 2715SOL     OW 9585   3.338   2.822   2.269  0.4722 -0.4469 -0.2600
 2715SOL    HW1 9586   3.291   2.760   2.326  0.7577 -0.6482 -0.2396
 2715SOL    HW2 9587   3.378   2.767   2.202  0.4814 -0.2522 -0.4124
 2716SOL     OW 9588   4.490   0.669   5.700 -0.4163 -0.0683 -0.0870
 2716SOL    HW1 9589   4.539   0.624   5.631  0.9241  0.2780  0.5922
 2716SOL    HW2 9590   4.546   0.743   5.724 -1.9369  1.1591 -0.2094
 2717SOL     OW 9591   0.757   0.383   4.552 -0.2462  0.0516  0.8978
 2717SOL    HW1 9592   0.801   0.314   4.503 -0.4105 -1.2724  2.5087
 2717SOL    HW2 9593   0.786   0.464   4.510 -0.3065 -0.9721 -1.2669
 2718SOL     OW 9594   3.243   2.796   7.977  0.7909 -0.0481  0.4366
 2718SOL    HW1 9595   3.261   2.798   7.883  0.3084  0.2676  0.3419
 2718SOL    HW2 9596   3.148   2.805   7.983  0.7567 -0.6773  0.9375
 2719SOL     OW 9597   4.507   6.142   6.226  0.3658 -0.3850  0.6345
 2719SOL    HW1 9598   4.419   6.137   6.188 -0.8236 -1.9204  3.3567
 2719SOL    HW2 9599   4.542   6.225   6.192 -2.0390  0.2012 -0.6782
 2720SOL     OW 9600   4.566   0.237   3.578 -0.7887 -0.3398  0.3863
 2720SOL    HW1 9601   4.540   0.258   3.488  1.2218  1.4672  0.1500
 2720SOL    HW2 9602   4.648   0.188   3.568  0.8517  2.0715  1.2047
 2721SOL     OW 9603   3.772   4.610   0.395 -0.5046 -0.0769 -0.3873
 2721SOL    HW1 9604   3.697   4.614   0.335 -0.7382 -1.3868 -0.2291
 2721SOL    HW2 9605   3.797   4.518   0.395 -0.5648 -0.1350  1.5686
 2722SOL     OW 9606   3.819   3.197   1.358  0.1059 -0.0518  0.5611
 2722SOL    HW1 9607   3.786   3.147   1.283  0.6379  1.5080 -0.7677
 2722SOL    HW2 9608   3.909   3.220   1.334  0.4368  0.0975  1.8855
 2723SOL     OW 9609   4.287   1.262   2.914 -0.2419 -0.3593  0.0767
 2723SOL    HW1 9610   4.297   1.168   2.904 -2.5910 -0.4903 -1.8995
 2723SOL    HW2 9611   4.296   1.298   2.826  3.3315  1.7397  1.0401
 2724SOL     OW 9612   1.246   7.852   0.745  0.3783  0.5214  0.3448
 2724SOL    HW1 9613   1.241   7.901   0.663 -2.6166  1.8466  1.1606
 2724SOL    HW2 9614   1.211   7.765   0.724 -4.1543  1.9905  0.7467
 2725SOL     OW 9615   0.032   5.425   6.491  0.3676  0.0105 -0.1830
 2725SOL    HW1 9616  -0.030   5.428   6.564  1.9354 -0.3912  1.2178
 2725SOL    HW2 9617   0.118   5.417   6.532  1.3700  0.4369 -2.0669
 2726SOL     OW 9618   6.724   0.883  11.318  0.0378 -0.7654 -0.2293
 2726SOL    HW1 9619   6.657   0.857  11.381 -0.2884  0.0283 -0.2315
 2726SOL    HW2 9620   6.798   0.825  11.335 -0.0674 -0.6051  0.8380
 2727SOL     OW 9621   4.978   2.366   9.171 -0.2455 -0.3530  0.3453
 2727SOL    HW1 9622   4.948   2.454   9.147 -1.7356 -1.2835 -1.4853
 2727SOL    HW2 9623   5.073   2.371   9.167 -0.3221  1.0228 -0.2808
 2728SOL     OW 9624   2.824   2.885   7.114  0.5704 -0.0356 -0.0307
 2728SOL    HW1 9625   2.836   2.854   7.203 -0.4744  0.4386  0.2888
 2728SOL    HW2 9626   2.902   2.937   7.095  0.8147 -0.1688  0.5904
 2729SOL     OW 9627   1.738   1.841   9.529 -0.3780 -0.8329 -0.5294
 2729SOL    HW1 9628   1.718   1.786   9.453 -2.4486 -1.3757  0.3404
 2729SOL    HW2 9629   1.694   1.797   9.602  1.3929 -0.2262  0.9802
 2730SOL     OW 9630   5.202   1.535   4.329 -0.6799 -0.2200  0.1042
 2730SOL    HW1 9631   5.194   1.454   4.279  0.0815 -0.2344 -0.0078
 2730SOL    HW2 9632   5.128   1.534   4.390 -1.0911 -0.6387 -0.4029
 2731SOL     OW 9633   1.354   6.425  10.792  0.1564 -0.0646  0.1026
 2731SOL    HW1 9634   1.313   6.358  10.847 -0.7769 -0.6323 -1.2285
 2731SOL    HW2 9635   1.291   6.497  10.793 -0.1377 -0.2963 -0.6295
 2732SOL     OW 9636   1.620   6.330   4.058  0.2026 -0.3576 -0.0576
 2732SOL    HW1 9637   1.576   6.413   4.037 -0.1433 -0.8992 -1.6656
 2732SOL    HW2 9638   1.593   6.271   3.988  0.1891 -1.9455  1.2368
 2733SOL     OW 9639   0.205   4.659   4.872 -0.0214 -0.0253  0.0125
 2733SOL    HW1 9640   0.249   4.605   4.938  1.4000 -1.0498 -1.6906
 2733SOL    HW2 9641   0.158   4.596   4.817  1.2256  0.4433 -1.6845
 2734SOL     OW 9642   1.614   1.978   7.714 -0.1288  0.3935 -0.3540
 2734SOL    HW1 9643   1.566   1.926   7.649  0.8649  0.4876 -1.1822
 2734SOL    HW2 9644   1.593   1.936   7.797 -1.1282  0.0406 -0.7623
 2735SOL     OW 9645   0.519   0.592   6.840 -0.1708 -0.3711 -0.0902
 2735SOL    HW1 9646   0.463   0.540   6.782 -2.1300 -1.7674  2.8170
 2735SOL    HW2 9647   0.608   0.567   6.815 -0.9857 -3.5161 -0.3506
 2736SOL     OW 9648   0.027   5.809   5.001  0.2443 -0.6412  0.5488
 2736SOL    HW1 9649   0.036   5.877   5.068 -1.4000 -0.1114  0.2899
 2736SOL    HW2 9650  -0.054   5.832   4.955 -0.2728 -2.6774  0.3432
 2737SOL     OW 9651   5.510   1.512   5.632 -0.2482  0.3518  0.0824
 2737SOL    HW1 9652   5.479   1.433   5.677  0.0955  0.5697  0.7177
 2737SOL    HW2 9653   5.494   1.583   5.694  1.4107  0.4879  0.4130
 2738SOL     OW 9654   2.845   6.740  10.173 -0.1217  0.2449 -0.8752
 2738SOL    HW1 9655   2.820   6.688  10.250  2.0704 -0.8631 -0.8582
 2738SOL    HW2 9656   2.768   6.735  10.116  0.1941 -3.8759 -1.2964
 2739SOL     OW 9657   1.250   0.486   7.716  0.2860 -0.3895  0.5451
 2739SOL    HW1 9658   1.325   0.498   7.658  1.2428  2.4665  2.1519
 2739SOL    HW2 9659   1.287   0.491   7.805 -1.4542 -1.9055  1.4322
 2740SOL     OW 9660   6.472   5.200   3.350 -0.2658 -0.8911  0.0939
 2740SOL    HW1 9661   6.488   5.282   3.396  0.2442 -1.2686  0.6040
 2740SOL    HW2 9662   6.554   5.184   3.302 -0.8232 -0.4424 -1.0651
 2741SOL     OW 9663   3.397   5.792   1.341 -0.6745  0.1546  0.4786
 2741SOL    HW1 9664   3.452   5.732   1.391 -1.0432 -0.0321  0.6572
 2741SOL    HW2 9665   3.457   5.831   1.277 -0.4634 -0.5001  0.2731
 2742SOL     OW 9666   4.995   3.727   8.432 -0.0732 -0.4161 -0.3816
 2742SOL    HW1 9667   5.082   3.765   8.423  0.5196 -1.9626 -1.8613
 2742SOL    HW2 9668   4.996   3.651   8.373 -2.1428 -0.9716  0.2056
 2743SOL     OW 9669   2.128   7.155  10.838 -0.6981  0.5320 -0.8325
 2743SOL    HW1 9670   2.183   7.096  10.889 -1.8752 -0.3603 -0.5619
 2743SOL    HW2 9671   2.126   7.236  10.888  0.0010  0.4211 -0.6236
 2744SOL     OW 9672   5.809   4.234   7.752 -0.4053  0.0489  0.7124
 2744SOL    HW1 9673   5.737   4.285   7.715  1.0740  1.5093 -0.2773
 2744SOL    HW2 9674   5.832   4.279   7.833 -1.0829 -0.8756  1.4421
 2745SOL     OW 9675   2.533   7.280   3.172 -0.4078 -0.2040  0.1419
 2745SOL    HW1 9676   2.440   7.300   3.178 -0.6849 -0.2960 -2.4311
 2745SOL    HW2 9677   2.538   7.211   3.106  1.6266  1.3947 -1.5244
 2746SOL     OW 9678   2.472   4.438   4.019  0.4459  0.2669 -0.3469
 2746SOL    HW1 9679   2.465   4.342   4.012  2.2784  0.1998 -2.2650
 2746SOL    HW2 9680   2.409   4.471   3.956 -1.4433  0.4520  1.5252
 2747SOL     OW 9681   5.094   6.050  10.975 -0.4246 -0.0524 -0.3360
 2747SOL    HW1 9682   5.065   5.971  10.929 -1.3961 -0.9569  1.7044
 2747SOL    HW2 9683   5.036   6.056  11.050  0.2263  2.1352  0.0472
 2748SOL     OW 9684   1.803   1.849   3.345 -0.0375 -0.2737  0.4994
 2748SOL    HW1 9685   1.893   1.826   3.319 -0.5102 -0.8245 -0.7033
 2748SOL    HW2 9686   1.809   1.863   3.440  1.1278 -1.2423  0.5980
 2749SOL     OW 9687   6.817   7.352  11.952 -0.2241  0.2916  0.0759
 2749SOL    HW1 9688   6.822   7.257  11.941  0.2519  0.0048  2.2172
 2749SOL    HW2 9689   6.732   7.367  11.994  1.2298  0.2601  3.3928
 2750SOL     OW 9690   1.702   5.830   7.634 -0.0280  0.2307 -0.1843
 2750SOL    HW1 9691   1.660   5.746   7.620  1.1467 -0.3094 -0.5955
 2750SOL    HW2 9692   1.786   5.809   7.675 -0.2291  1.2891  0.8322
 2751SOL     OW 9693   7.561   4.992   5.026 -0.2142 -0.2123  0.2937
 2751SOL    HW1 9694   7.604   5.076   5.006  2.5344 -1.9505 -1.8493
 2751SOL    HW2 9695   7.602   4.963   5.107 -0.3570  0.0032  0.4450
 2752SOL     OW 9696   4.159   7.336   5.337  0.4108  0.3495  0.6141
 2752SOL    HW1 9697   4.151   7.351   5.431  0.2119  1.0530  0.4893
 2752SOL    HW2 9698   4.127   7.417   5.296  0.6241  0.1077 -0.0548
 2753SOL     OW 9699   2.682   1.006   9.635 -0.9739 -0.3875  0.4509
 2753SOL    HW1 9700   2.593   1.015   9.601 -0.4253  0.6427 -0.8227
 2753SOL    HW2 9701   2.714   0.924   9.597 -0.3008  0.8465 -1.8336
 2754SOL     OW 9702   7.527   3.243   6.627 -0.0268 -0.2449 -0.2585
 2754SOL    HW1 9703   7.448   3.264   6.577  0.2105  1.9197  0.1750
 2754SOL    HW2 9704   7.598   3.285   6.579  0.3520  0.9103  1.2347
 2755SOL     OW 9705   0.620   5.193   4.424 -0.7275 -0.4035 -0.6044
 2755SOL    HW1 9706   0.646   5.267   4.478 -0.4655 -1.1537  0.3222
 2755SOL    HW2 9707   0.653   5.214   4.336 -0.0283  0.2324 -0.1958
 2756SOL     OW 9708   3.081   0.214   1.384 -0.3347 -0.7614 -0.2305
 2756SOL    HW1 9709   2.985   0.215   1.381 -0.3421 -1.3822 -0.4359
 2756SOL    HW2 9710   3.107   0.275   1.315 -0.5847 -1.1579 -0.6826
 2757SOL     OW 9711   4.802   5.901   7.758  0.4797 -0.0157  0.3353
 2757SOL    HW1 9712   4.795   5.973   7.820  0.7919  0.2960  0.0132
 2757SOL    HW2 9713   4.875   5.848   7.790 -1.9582 -2.2678  2.6730
 2758SOL     OW 9714   7.127   7.240   6.285 -0.1704 -0.5962 -0.4610
 2758SOL    HW1 9715   7.087   7.243   6.371 -0.6673  0.8782 -0.7103
 2758SOL    HW2 9716   7.103   7.324   6.244  0.5576 -1.0024 -1.7942
 2759SOL     OW 9717   0.543   5.262   8.486  0.3160 -0.1828  0.3089
 2759SOL    HW1 9718   0.583   5.194   8.432  0.3458 -0.4376  0.6495
 2759SOL    HW2 9719   0.463   5.222   8.521 -1.8469  1.1723 -2.5950
 2760SOL     OW 9720   3.567   1.687   9.571  0.5439 -0.1563  0.2267
 2760SOL    HW1 9721   3.594   1.771   9.606  1.8994 -0.2127 -0.6036
 2760SOL    HW2 9722   3.627   1.671   9.498 -0.9288 -0.9281 -0.8722
 2761SOL     OW 9723   0.790   0.582   2.771 -0.3623 -0.4984  0.2342
 2761SOL    HW1 9724   0.854   0.536   2.716 -2.0652 -1.2376 -1.2399
 2761SOL    HW2 9725   0.705   0.562   2.730 -1.3979  1.9250  1.0363
 2762SOL     OW 9726   0.053   1.762   8.526  0.0971 -0.0646  0.5014
 2762SOL    HW1 9727   0.001   1.773   8.446 -2.0232  2.2494  2.0458
 2762SOL    HW2 9728   0.131   1.715   8.497 -0.3905  0.9630 -2.9754
 2763SOL     OW 9729   0.775   1.354  11.837 -0.6147  0.5317 -0.6246
 2763SOL    HW1 9730   0.791   1.260  11.830  0.8114  0.6783  0.2109
 2763SOL    HW2 9731   0.847   1.394  11.788  1.1815  1.2293  2.3253
 2764SOL     OW 9732   7.336   4.225   0.309 -0.4325  0.1565 -0.9579
 2764SOL    HW1 9733   7.280   4.148   0.322  1.2565 -0.8412  0.9750
 2764SOL    HW2 9734   7.274   4.297   0.296 -2.2374 -0.8004  1.5314
 2765SOL     OW 9735   6.039   7.205   9.119 -0.3165  0.0184 -0.1193
 2765SOL    HW1 9736   5.978   7.191   9.046 -2.1527 -0.6427  1.4670
 2765SOL    HW2 9737   5.983   7.211   9.196  1.6814 -1.0888  1.4984
 2766SOL     OW 9738   5.834   6.524   7.520  0.2875 -0.1814 -0.0245
 2766SOL    HW1 9739   5.848   6.501   7.612  1.6956  0.5961 -0.0196
 2766SOL    HW2 9740   5.894   6.468   7.471  3.7121  3.1172 -0.0197
 2767SOL     OW 9741   4.671   5.916   6.231  0.5718 -0.1995 -0.2642
 2767SOL    HW1 9742   4.706   5.934   6.318 -2.0052 -0.8521  1.0223
 2767SOL    HW2 9743   4.590   5.967   6.227 -0.5812 -1.9831 -1.3069
 2768SOL     OW 9744   6.948   1.399   7.771 -0.1288 -0.3586  0.0119
 2768SOL    HW1 9745   7.028   1.348   7.755 -0.5398 -0.7644 -0.7851
 2768SOL    HW2 9746   6.884   1.334   7.799 -0.8585 -0.4365 -1.6827
 2769SOL     OW 9747   6.650   1.737   2.932 -0.3063 -0.0353  0.5887
 2769SOL    HW1 9748   6.576   1.682   2.908 -0.0856 -0.7691  1.5118
 2769SOL    HW2 9749   6.691   1.761   2.849 -0.6879 -0.8763  0.1482
 2770SOL     OW 9750   4.507   0.335   2.081 -0.0010 -0.1163  0.0328
 2770SOL    HW1 9751   4.571   0.268   2.104  0.1626 -0.6365 -1.7495
 2770SOL    HW2 9752   4.449   0.341   2.157  0.8461 -1.2291  0.7947
 2771SOL     OW 9753   5.317   6.761   1.809  0.1275  0.4056 -0.6097
 2771SOL    HW1 9754   5.385   6.714   1.858 -0.9673 -0.5209  0.0811
 2771SOL    HW2 9755   5.236   6.717   1.834 -0.6615  1.0888 -1.8970
 2772SOL     OW 9756   2.809   5.616   2.017 -0.1622 -0.5049  0.4783
 2772SOL    HW1 9757   2.734   5.653   1.970  0.4128  0.0078 -0.0708
 2772SOL    HW2 9758   2.771   5.561   2.085 -1.0419  0.3042  0.6572
 2773SOL     OW 9759   3.103   5.607   8.465 -0.5357 -0.3524  0.5903
 2773SOL    HW1 9760   3.014   5.641   8.472 -0.3912  0.2228 -0.1705
 2773SOL    HW2 9761   3.094   5.525   8.417 -0.7256 -0.6695  1.1544
 2774SOL     OW 9762   7.682   2.816   3.510  0.4135 -0.1731 -0.1375
 2774SOL    HW1 9763   7.595   2.833   3.544  0.4629  0.9363 -0.5222
 2774SOL    HW2 9764   7.682   2.722   3.489 -1.0279  0.0060 -1.0810
 2775SOL     OW 9765   5.652   2.746   2.247  0.0168 -0.2578 -0.0102
 2775SOL    HW1 9766   5.709   2.745   2.324 -0.4550  2.0830  0.4405
 2775SOL    HW2 9767   5.701   2.796   2.181 -0.0613 -1.2696 -0.8649
 2776SOL     OW 9768   2.585   1.674   6.488  0.4711 -0.5150 -0.6158
 2776SOL    HW1 9769   2.525   1.734   6.445  0.5923 -0.9242 -1.3761
 2776SOL    HW2 9770   2.584   1.700   6.580 -2.2057 -1.6059 -0.2682
 2777SOL     OW 9771   0.062   4.437   2.472  0.1328 -0.0764 -0.0985
 2777SOL    HW1 9772   0.155   4.415   2.460  0.4006  1.5749 -1.4865
 2777SOL    HW2 9773   0.023   4.357   2.507  1.6044 -1.6821 -1.8885
 2778SOL     OW 9774   5.013   3.148   2.620  0.0060  0.6783 -0.1343
 2778SOL    HW1 9775   4.947   3.081   2.602 -0.4576  0.9527  0.5077
 2778SOL    HW2 9776   5.097   3.106   2.598 -0.1352 -0.6430  1.6621
 2779SOL     OW 9777   0.429   4.215   4.520  0.6598  0.1089 -0.1436
 2779SOL    HW1 9778   0.423   4.163   4.440  0.3895  0.4416 -0.3425
 2779SOL    HW2 9779   0.421   4.151   4.591  1.1175 -0.2117 -0.3781
 2780SOL     OW 9780   1.110   5.167  10.089  0.2962 -0.4545  0.2660
 2780SOL    HW1 9781   1.086   5.163  10.182 -0.9759 -0.3362 -0.0334
 2780SOL    HW2 9782   1.145   5.255  10.076 -2.9917  0.9796 -0.0835
 2781SOL     OW 9783   5.216   6.422   5.200  0.7947  0.6720  0.4899
 2781SOL    HW1 9784   5.143   6.450   5.145  0.1784 -1.1851  0.3044
 2781SOL    HW2 9785   5.294   6.440   5.148  0.3107  0.3102 -0.3720
 2782SOL     OW 9786   1.952   6.485   9.515  0.0595  0.2488 -0.5003
 2782SOL    HW1 9787   1.873   6.536   9.496 -0.0648  0.1343 -0.2958
 2782SOL    HW2 9788   1.923   6.394   9.507  0.0571  0.1991  0.0201
 2783SOL     OW 9789   1.911   6.513   8.776  0.6415 -0.0091 -0.0758
 2783SOL    HW1 9790   1.959   6.431   8.764  0.6975 -0.3253  1.9394
 2783SOL    HW2 9791   1.819   6.488   8.767  0.6279 -0.4334  1.0900
 2784SOL     OW 9792   3.492   5.220   4.738 -0.1190  0.1247 -0.0808
 2784SOL    HW1 9793   3.401   5.190   4.738 -0.3357  0.7634 -0.6060
 2784SOL    HW2 9794   3.504   5.262   4.653  0.3985  0.8432  0.3364
 2785SOL     OW 9795   0.182   4.759   7.102 -0.1181 -0.2615  0.7355
 2785SOL    HW1 9796   0.157   4.666   7.103 -1.4120  0.0713  1.0080
 2785SOL    HW2 9797   0.225   4.773   7.187  1.3570 -0.9138  0.1350
 2786SOL     OW 9798   5.390   1.396   8.693  0.6385  0.3723  0.5017
 2786SOL    HW1 9799   5.467   1.401   8.751  0.3786 -1.2930  1.0473
 2786SOL    HW2 9800   5.321   1.363   8.750  0.2764 -0.9363 -0.6634
 2787SOL     OW 9801   7.172   6.333   9.979  0.4721  0.4839  0.3075
 2787SOL    HW1 9802   7.113   6.374  10.042  0.7502  0.5320  0.5401
 2787SOL    HW2 9803   7.234   6.401   9.956  0.7855  0.2721  0.5070
 2788SOL     OW 9804   4.660   4.904  10.453  0.1305  0.3913 -0.2307
 2788SOL    HW1 9805   4.637   4.873  10.365  0.5745  1.4762 -0.7404
 2788SOL    HW2 9806   4.578   4.896  10.502  0.0097 -0.7536 -0.5661
 2789SOL     OW 9807   6.941   4.392   6.271 -0.5352 -0.1232  0.6275
 2789SOL    HW1 9808   6.971   4.418   6.359 -2.0347 -0.6298  1.3141
 2789SOL    HW2 9809   6.893   4.468   6.239 -1.7358 -0.6577  1.1072
 2790SOL     OW 9810   5.530   1.643  11.747 -0.0193  0.0202 -0.0019
 2790SOL    HW1 9811   5.479   1.564  11.726  0.1476  0.2737 -1.4496
 2790SOL    HW2 9812   5.620   1.621  11.722  0.1273  0.4655  0.1205
 2791SOL     OW 9813   6.472   6.565  10.419  0.0540 -0.0236 -0.6879
 2791SOL    HW1 9814   6.403   6.504  10.444  0.0222  0.5636  0.7439
 2791SOL    HW2 9815   6.552   6.526  10.453 -0.1325  1.3524  1.5654
 2792SOL     OW 9816   5.318   1.276   9.102  0.0614 -0.0832  0.2495
 2792SOL    HW1 9817   5.305   1.223   9.023 -0.8880 -0.6735  0.7870
 2792SOL    HW2 9818   5.230   1.309   9.123  0.6815  2.1671 -0.3697
 2793SOL     OW 9819   5.093   0.785  12.143  0.1157 -0.4036 -0.2134
 2793SOL    HW1 9820   5.164   0.843  12.119  0.3591 -0.8676 -0.6392
 2793SOL    HW2 9821   5.131   0.697  12.139  0.1793 -0.5205  1.8822
 2794SOL     OW 9822   0.218   1.616   1.387 -0.1564  0.4847 -0.2392
 2794SOL    HW1 9823   0.241   1.687   1.447  1.0187  1.1735 -1.4495
 2794SOL    HW2 9824   0.132   1.640   1.353 -1.5866 -0.7056  2.2653
 2795SOL     OW 9825   0.214   3.801   8.041  0.1221 -0.0338 -0.7933
 2795SOL    HW1 9826   0.171   3.886   8.036 -1.1705 -0.7486 -3.0743
 2795SOL    HW2 9827   0.152   3.740   8.001  1.4561 -1.8881 -0.1702
 2796SOL     OW 9828   0.078   2.220   0.686 -0.6175  0.6464  0.3322
 2796SOL    HW1 9829   0.061   2.231   0.780 -2.2761 -2.0305  0.4868
 2796SOL    HW2 9830   0.057   2.304   0.647 -1.5821  1.3305  2.2037
 2797SOL     OW 9831   2.799   2.582   3.809 -0.3073  0.0228  0.2960
 2797SOL    HW1 9832   2.767   2.500   3.846  0.5835 -0.0792  0.8595
 2797SOL    HW2 9833   2.879   2.557   3.761 -1.4893  0.1188 -1.8559
 2798SOL     OW 9834   5.132   1.072   6.145  0.3002  0.1684 -0.2536
 2798SOL    HW1 9835   5.143   1.022   6.226  0.2244 -1.1576 -1.0240
 2798SOL    HW2 9836   5.054   1.125   6.159 -1.2107 -1.9087 -0.3279
 2799SOL     OW 9837   7.616   7.152   0.144  0.0689  0.5530 -0.1758
 2799SOL    HW1 9838   7.617   7.094   0.068  2.0009  0.1726  0.0908
 2799SOL    HW2 9839   7.571   7.231   0.113  0.0610  0.0707 -1.4541
 2800SOL     OW 9840   0.992   2.875   0.619 -0.5091  0.2665 -0.0071
 2800SOL    HW1 9841   0.970   2.956   0.664 -0.1190 -0.4583  1.5670
 2800SOL    HW2 9842   1.050   2.902   0.548  0.9056  1.2420  1.4314
 2801SOL     OW 9843   1.369   4.886   5.419 -0.4275 -0.2470 -0.4192
 2801SOL    HW1 9844   1.455   4.859   5.387  0.9038  2.3696  0.6619
 2801SOL    HW2 9845   1.359   4.840   5.503  0.6009  0.4856  0.1322
 2802SOL     OW 9846   3.092   5.076   2.500  0.2515 -0.3123 -0.2827
 2802SOL    HW1 9847   3.145   4.998   2.516 -1.3842 -1.0720  1.8249
 2802SOL    HW2 9848   3.104   5.130   2.578 -0.0230  0.7261 -0.9418
 2803SOL     OW 9849   1.951   4.320   0.341 -0.0234 -0.1282 -0.0662
 2803SOL    HW1 9850   1.912   4.312   0.428 -2.3634  1.3052 -0.9205
 2803SOL    HW2 9851   2.044   4.335   0.359  0.2302 -3.1926  2.0591
 2804SOL     OW 9852   0.153   1.762  10.148 -0.4881  0.0296  0.3614
 2804SOL    HW1 9853   0.106   1.683  10.121 -0.9767  0.0521  1.1118
 2804SOL    HW2 9854   0.167   1.811  10.067 -1.1557 -0.3053  0.0369
 2805SOL     OW 9855   6.954   7.129   9.443  0.0490 -0.2627  0.1732
 2805SOL    HW1 9856   6.971   7.040   9.410  2.0403 -0.6243  1.9614
 2805SOL    HW2 9857   6.905   7.171   9.373 -1.2866 -2.8754 -0.5853
 2806SOL     OW 9858   7.817   6.268   3.314 -0.5375 -0.3071 -0.1766
 2806SOL    HW1 9859   7.815   6.224   3.399  0.2474  0.3201  0.1872
 2806SOL    HW2 9860   7.772   6.351   3.329 -1.8328 -0.8821 -0.8040
 2807SOL     OW 9861   6.752   7.527   6.767 -0.1148  0.0307  0.4222
 2807SOL    HW1 9862   6.721   7.553   6.854  1.5708  0.5446  0.8977
 2807SOL    HW2 9863   6.750   7.607   6.716  0.5207  0.0987  0.4961
 2808SOL     OW 9864   3.422   2.899   8.314  0.1270 -0.3147 -0.4754
 2808SOL    HW1 9865   3.352   2.915   8.377 -0.2429  0.5311 -1.0726
 2808SOL    HW2 9866   3.483   2.841   8.359 -0.5345 -0.3733  0.3609
 2809SOL     OW 9867   2.621   0.023   7.061 -0.2407  0.1284  0.3415
 2809SOL    HW1 9868   2.630  -0.056   7.008 -1.2712  0.0248  0.3030
 2809SOL    HW2 9869   2.635  -0.006   7.151 -0.2166 -0.0201  0.2903
 2810SOL     OW 9870   4.853   7.134  12.079 -0.0832  0.4591  0.2341
 2810SOL    HW1 9871   4.917   7.190  12.121 -1.7228  1.8131  1.0494
 2810SOL    HW2 9872   4.779   7.131  12.141 -1.4204  0.1976 -1.2966
 2811SOL     OW 9873   3.964   1.506   1.368  0.2192 -0.2583  0.1372
 2811SOL    HW1 9874   3.998   1.595   1.374 -0.4549 -0.0470  0.9534
 2811SOL    HW2 9875   3.973   1.484   1.275  0.4082  0.6474 -0.0730
 2812SOL     OW 9876   5.498   1.591  12.262 -0.2719  0.1319 -0.8114
 2812SOL    HW1 9877   5.542   1.651  12.202 -0.7174  0.2184 -1.0483
 2812SOL    HW2 9878   5.500   1.636  12.346  1.4860 -0.5193 -0.4473
 2813SOL     OW 9879   6.002   4.872   9.265 -0.2882  0.0491 -0.3599
 2813SOL    HW1 9880   5.995   4.909   9.177 -1.4589  0.2999 -0.1759
 2813SOL    HW2 9881   5.913   4.876   9.300 -0.4061 -2.4900 -0.1555
 2814SOL     OW 9882   3.274   2.952  12.222  0.5348  0.3426 -0.0067
 2814SOL    HW1 9883   3.179   2.944  12.230  0.5942  0.7928  1.7593
 2814SOL    HW2 9884   3.289   2.982  12.133 -0.9160 -0.5054 -0.5695
 2815SOL     OW 9885   5.508   1.583   5.371  0.0371  0.4312 -0.2804
 2815SOL    HW1 9886   5.526   1.540   5.454  0.1248 -0.5334 -0.7836
 2815SOL    HW2 9887   5.421   1.622   5.382 -0.3018 -0.3792  0.0003
 2816SOL     OW 9888   6.507   5.510   1.399  0.1025 -0.6721 -0.4017
 2816SOL    HW1 9889   6.435   5.470   1.448 -0.0633  0.5400  0.4072
 2816SOL    HW2 9890   6.491   5.484   1.308 -1.5499 -0.2364 -0.2871
 2817SOL     OW 9891   7.048   6.657   6.660 -0.9870  0.1079 -0.2559
 2817SOL    HW1 9892   6.974   6.640   6.602 -1.6981 -0.2513  0.7308
 2817SOL    HW2 9893   7.014   6.640   6.748  0.5463 -1.1086  0.1508
 2818SOL     OW 9894   6.439   0.315  11.930  0.0855 -0.0433 -0.1265
 2818SOL    HW1 9895   6.489   0.391  11.899  1.5026  0.0220  2.0995
 2818SOL    HW2 9896   6.365   0.353  11.977  1.1041  0.0472  1.4839
 2819SOL     OW 9897   2.955   0.046  10.341 -0.4144  0.2785 -0.2666
 2819SOL    HW1 9898   2.968  -0.036  10.389  1.0775  0.4484 -0.3355
 2819SOL    HW2 9899   2.893   0.096  10.394  0.4012  0.0268  0.9445
 2820SOL     OW 9900   4.944   5.105  11.294  0.2985 -0.0132  0.1126
 2820SOL    HW1 9901   4.851   5.129  11.287 -0.3021 -1.9271  0.7168
 2820SOL    HW2 9902   4.944   5.009  11.285  2.2624 -0.0165 -0.1856
 2821SOL     OW 9903   0.106   1.619   5.840  0.0711  0.2738  0.8651
 2821SOL    HW1 9904   0.155   1.541   5.862 -0.5894  0.3382  2.7525
 2821SOL    HW2 9905   0.014   1.592   5.847 -0.2162  1.6029  3.4335
 2822SOL     OW 9906   0.695   7.636   1.657 -0.1349  0.1613  0.6118
 2822SOL    HW1 9907   0.715   7.633   1.563 -1.2272  1.8053  0.2750
 2822SOL    HW2 9908   0.780   7.624   1.700  0.2674 -1.4348 -0.5483
 2823SOL     OW 9909   0.481   5.695   3.873  0.5926  0.1344  0.4355
 2823SOL    HW1 9910   0.469   5.601   3.862 -2.5366  0.5354 -0.4206
 2823SOL    HW2 9911   0.500   5.728   3.785  1.3094  0.3857  0.6733
 2824SOL     OW 9912   5.382   1.195   8.209  0.3241 -0.0168  0.1997
 2824SOL    HW1 9913   5.303   1.167   8.162  0.1363 -1.3347  1.2365
 2824SOL    HW2 9914   5.353   1.206   8.299  1.5775 -1.8515  0.8797
 2825SOL     OW 9915   2.104   3.123   7.229  0.0991 -0.4067 -0.0048
 2825SOL    HW1 9916   2.023   3.076   7.211  0.3860 -0.5799 -0.9181
 2825SOL    HW2 9917   2.134   3.090   7.313 -0.8830 -0.1881  0.4402
 2826SOL     OW 9918   6.263   4.329   7.913 -0.1118  0.1948  0.0261
 2826SOL    HW1 9919   6.356   4.310   7.926  0.0534  0.4946 -0.6575
 2826SOL    HW2 9920   6.251   4.326   7.818 -1.2118 -1.7109  0.1828
 2827SOL     OW 9921   1.964   7.416   7.895 -0.9875 -0.0569 -0.5615
 2827SOL    HW1 9922   1.960   7.413   7.799  1.3617 -0.2836 -0.7046
 2827SOL    HW2 9923   1.992   7.505   7.915  0.7797 -0.6476 -0.2505
 2828SOL     OW 9924   0.786   7.696   5.828 -0.2596  0.2539 -0.8264
 2828SOL    HW1 9925   0.864   7.645   5.851  0.5319  1.3812 -0.8719
 2828SOL    HW2 9926   0.748   7.721   5.913 -0.8489 -0.6788 -0.8050
 2829SOL     OW 9927   6.559   7.514   1.129  0.4594 -0.1843 -0.3874
 2829SOL    HW1 9928   6.498   7.481   1.063  1.2594 -0.5568 -0.9511
 2829SOL    HW2 9929   6.615   7.575   1.081  1.4909 -0.9720 -0.2202
 2830SOL     OW 9930   6.329   6.845   3.247  0.4700 -0.1221 -0.2767
 2830SOL    HW1 9931   6.399   6.910   3.239  0.7048 -0.3826 -0.4076
 2830SOL    HW2 9932   6.317   6.812   3.158  0.3254 -0.2265 -0.2193
 2831SOL     OW 9933   7.732   5.324   1.066 -0.1610 -0.0372  0.8195
 2831SOL    HW1 9934   7.746   5.310   0.973 -0.5407 -0.1444  0.7770
 2831SOL    HW2 9935   7.777   5.407   1.085  0.7627 -0.5138  0.7549
 2832SOL     OW 9936   4.590   3.727   5.663 -0.1090 -0.2066 -0.3757
 2832SOL    HW1 9937   4.616   3.666   5.594 -0.0415  0.2781 -0.7806
 2832SOL    HW2 9938   4.634   3.693   5.741  0.1301 -0.5351 -0.6454
 2833SOL     OW 9939   3.639   2.528   7.021  0.1529  0.3194 -0.3575
 2833SOL    HW1 9940   3.556   2.499   7.060 -0.3240  0.2275 -1.4008
 2833SOL    HW2 9941   3.615   2.601   6.964  0.5348 -0.5826 -1.7520
 2834SOL     OW 9942   7.199   0.032   0.576  0.1392 -0.0172 -0.1663
 2834SOL    HW1 9943   7.180  -0.041   0.517  0.5471 -0.6359  0.4482
 2834SOL    HW2 9944   7.295   0.040   0.575  0.2235 -0.6221  1.0715
 2835SOL     OW 9945   5.809   3.374   9.921 -0.2047  0.0234 -0.6103
 2835SOL    HW1 9946   5.765   3.355  10.004  1.5768 -0.3452  0.2761
 2835SOL    HW2 9947   5.738   3.370   9.856 -1.5094 -0.3909  0.7696
 2836SOL     OW 9948   2.976   0.658   9.519 -0.1598 -0.7277 -0.2137
 2836SOL    HW1 9949   2.984   0.723   9.589  0.9406 -1.5764  0.4756
 2836SOL    HW2 9950   3.051   0.675   9.462 -0.6497 -0.5134 -0.8185
 2837SOL     OW 9951   6.280   5.370   1.483 -0.6995 -0.0487 -0.3205
 2837SOL    HW1 9952   6.248   5.315   1.411 -1.6576  0.5388 -0.3591
 2837SOL    HW2 9953   6.242   5.330   1.562  0.1956 -0.5798 -0.1405
 2838SOL     OW 9954   2.226   2.589   7.568  0.2052 -0.0846 -0.3905
 2838SOL    HW1 9955   2.133   2.568   7.563  0.3951 -0.6766 -2.2602
 2838SOL    HW2 9956   2.254   2.595   7.477  2.0533 -0.1520  0.1317
 2839SOL     OW 9957   6.408   7.788   0.356  0.6917  0.1033 -0.1688
 2839SOL    HW1 9958   6.423   7.779   0.451  1.4115  0.2352 -0.2653
 2839SOL    HW2 9959   6.314   7.773   0.346  0.4325  1.0141  0.6750
 2840SOL     OW 9960   3.446   7.462   8.451  0.1613  0.1439  0.3360
 2840SOL    HW1 9961   3.521   7.434   8.503 -0.0526  0.9502  1.1006
 2840SOL    HW2 9962   3.476   7.455   8.360  0.7730 -0.6215  0.5884
 2841SOL     OW 9963   0.433   5.331   5.904  0.0421  0.3005 -0.1087
 2841SOL    HW1 9964   0.405   5.422   5.912  0.3179  0.2015  3.9067
 2841SOL    HW2 9965   0.352   5.283   5.886 -0.6271  1.0585  0.7884
 2842SOL     OW 9966   0.854   1.079   8.822 -0.2133 -0.2557  0.2320
 2842SOL    HW1 9967   0.769   1.043   8.799 -0.4242 -0.4197  1.2122
 2842SOL    HW2 9968   0.910   1.060   8.747 -0.4894 -2.0713  0.4333
 2843SOL     OW 9969   7.584   3.031  11.356 -0.0021  0.2890  0.3791
 2843SOL    HW1 9970   7.673   3.008  11.385 -0.2709  0.3420  1.2882
 2843SOL    HW2 9971   7.532   3.028  11.436 -0.2596  3.0868  0.4249
 2844SOL     OW 9972   6.045   1.714   8.308  0.1406  0.1588 -0.2726
 2844SOL    HW1 9973   6.118   1.655   8.293 -1.1083 -1.9603  1.4568
 2844SOL    HW2 9974   6.080   1.783   8.364  1.4973  0.8717 -1.9130
 2845SOL     OW 9975   5.614   5.107  11.874 -0.0217  0.5978  0.7237
 2845SOL    HW1 9976   5.549   5.041  11.849  0.8757  0.0958 -0.4037
 2845SOL    HW2 9977   5.658   5.070  11.950  0.2815  0.0106  0.2723
 2846SOL     OW 9978   1.855   2.408   9.572  0.3899  0.3162 -0.7636
 2846SOL    HW1 9979   1.943   2.385   9.603 -0.4411 -2.4670 -0.1939
 2846SOL    HW2 9980   1.854   2.379   9.480 -0.1235 -0.3103 -0.5660
 2847SOL     OW 9981   1.922   4.266   4.999 -0.9164 -0.3604  0.0075
 2847SOL    HW1 9982   1.903   4.195   5.061 -2.1329  0.6278  0.8164
 2847SOL    HW2 9983   1.928   4.344   5.053  0.9955  0.1106 -0.7982
 2848SOL     OW 9984   7.765   1.522   8.568  0.2069 -0.1926  0.1367
 2848SOL    HW1 9985   7.852   1.560   8.580 -0.6077  1.6256  0.6007
 2848SOL    HW2 9986   7.754   1.516   8.473  0.3299  0.8161  0.0534
 2849SOL     OW 9987   4.564   7.516   0.538  0.3774 -0.2200  0.0875
 2849SOL    HW1 9988   4.567   7.586   0.603  1.0148 -1.5409  1.5453
 2849SOL    HW2 9989   4.644   7.527   0.488 -0.2902  1.0257 -0.7617
 2850SOL     OW 9990   6.285   4.638   7.051 -0.0402 -0.1305  0.1563
 2850SOL    HW1 9991   6.221   4.578   7.012 -0.4451 -0.3948  1.2082
 2850SOL    HW2 9992   6.328   4.586   7.119 -0.2239  0.6955  0.9163
 2851SOL     OW 9993   7.230   7.806   6.307  0.1576  0.0023  0.5806
 2851SOL    HW1 9994   7.298   7.864   6.271 -0.5035  0.7687  0.5274
 2851SOL    HW2 9995   7.270   7.719   6.308 -0.6723 -0.7461 -4.6655
 2852SOL     OW 9996   2.177   4.635   7.089  0.2876  0.3316 -0.1585
 2852SOL    HW1 9997   2.161   4.587   7.170  0.5486 -0.7380 -0.7184
 2852SOL    HW2 9998   2.264   4.605   7.060  0.7009  1.5609 -0.2445
 2853SOL     OW 9999   2.179   7.649   9.111 -0.3417  0.7071  0.4726
 2853SOL    HW110000   2.142   7.601   9.184 -0.4802  0.2406  0.0993
 2853SOL    HW210001   2.215   7.729   9.150 -3.0400  1.9293  0.6723
 2854SOL     OW10002   0.001   4.085   4.355 -0.5241 -0.2694 -0.2194
 2854SOL    HW110003  -0.016   4.165   4.305 -2.2422 -0.0189  0.6700
 2854SOL    HW210004  -0.086   4.052   4.376  0.1372 -1.0524  1.4888
 2855SOL     OW10005   3.763   4.531  11.193 -0.7972 -0.0709  0.6840
 2855SOL    HW110006   3.859   4.532  11.195 -0.7200 -0.4385 -1.0556
 2855SOL    HW210007   3.738   4.477  11.268  0.2814  1.1768  1.9879
 2856SOL     OW10008   3.932   7.027   6.158 -0.3686  0.2669  0.0140
 2856SOL    HW110009   3.975   6.987   6.233  0.0381  0.2791 -0.2095
 2856SOL    HW210010   3.996   7.021   6.087 -0.5138  0.8025 -0.1735
 2857SOL     OW10011   2.437   2.242   5.915  0.5834  0.0662  0.1222
 2857SOL    HW110012   2.530   2.241   5.937  0.3692  2.1615  1.4167
 2857SOL    HW210013   2.433   2.278   5.827  1.0014 -0.4812 -0.1274
 2858SOL     OW10014   7.010   6.311   9.238  0.2386  0.2690 -0.2980
 2858SOL    HW110015   7.035   6.228   9.278 -0.8882  0.1772  0.2555
 2858SOL    HW210016   6.973   6.287   9.154  0.6094  0.2778 -0.4650
 2859SOL     OW10017   6.426   6.383  11.743 -0.6155  0.3089  0.9110
 2859SOL    HW110018   6.494   6.436  11.702 -1.9527  1.2641 -0.1861
 2859SOL    HW210019   6.469   6.300  11.764  0.6739  0.5824 -0.4837
 2860SOL     OW10020   1.225   7.327   8.135 -0.2329 -0.3554  0.3031
 2860SOL    HW110021   1.276   7.406   8.119 -0.8005 -0.1541 -0.6091
 2860SOL    HW210022   1.290   7.260   8.154  0.2115  1.0086  4.7050
 2861SOL     OW10023   0.551   7.402  10.848 -0.5651 -0.2430 -0.0511
 2861SOL    HW110024   0.503   7.394  10.766  0.5022 -0.1755 -0.6956
 2861SOL    HW210025   0.586   7.314  10.863  0.2927  0.0492 -0.3281
 2862SOL     OW10026   1.221   2.122   8.133 -0.4390  0.3288 -0.1010
 2862SOL    HW110027   1.314   2.134   8.117 -0.4917  1.7028  0.4802
 2862SOL    HW210028   1.216   2.093   8.225 -0.5797  0.1409 -0.1662
 2863SOL     OW10029   3.354   5.591  11.937 -0.5368 -0.2031  0.6942
 2863SOL    HW110030   3.439   5.608  11.897 -0.3676 -1.7343  0.3464
 2863SOL    HW210031   3.373   5.543  12.017 -1.0996 -1.6191  0.0110
 2864SOL     OW10032   5.048   3.327   7.259  0.0335  0.0908  0.7486
 2864SOL    HW110033   5.094   3.406   7.229  1.6169 -1.2126 -0.4165
 2864SOL    HW210034   5.050   3.268   7.183 -1.9829 -0.7319  1.2714
 2865SOL     OW10035   3.002   0.242   6.186 -0.5907  0.0322  0.4982
 2865SOL    HW110036   3.013   0.323   6.137 -0.1542 -0.2036  0.1969
 2865SOL    HW210037   2.911   0.218   6.174 -0.9658  0.9530  1.3339
 2866SOL     OW10038   0.704   0.677   6.460  0.0879  0.2771  0.1595
 2866SOL    HW110039   0.660   0.720   6.533  0.9345 -0.4335  1.1246
 2866SOL    HW210040   0.673   0.723   6.382  0.2940  2.0477  1.0711
 2867SOL     OW10041   0.437   4.150  10.024  0.0976  0.0309  0.2249
 2867SOL    HW110042   0.345   4.127  10.040 -0.3155  1.4370 -0.0159
 2867SOL    HW210043   0.441   4.244  10.040  1.5743 -0.0611  0.5253
 2868SOL     OW10044   1.189   1.349   7.897  0.7052 -0.1117 -0.2434
 2868SOL    HW110045   1.280   1.330   7.873  0.9627 -0.3397  0.8764
 2868SOL    HW210046   1.189   1.443   7.917  0.5776 -0.0090 -0.7008
 2869SOL     OW10047   2.344   7.601   4.022  0.1296 -0.3404  0.9484
 2869SOL    HW110048   2.341   7.681   3.969 -0.1190 -1.4600 -0.8214
 2869SOL    HW210049   2.338   7.632   4.112 -2.6012  1.5332  0.2529
 2870SOL     OW10050   0.368   0.032   6.521  0.0835 -0.0576 -0.0329
 2870SOL    HW110051   0.351   0.026   6.615  0.5892 -2.2519 -0.0152
 2870SOL    HW210052   0.455   0.072   6.515  0.1458 -0.1105  0.4487
 2871SOL     OW10053   6.348   1.731   1.016  0.1201  0.2528  0.1176
 2871SOL    HW110054   6.319   1.690   0.934 -0.8278  0.6153  0.2641
 2871SOL    HW210055   6.410   1.668   1.053  0.3842 -0.0224 -0.7591
 2872SOL     OW10056   3.254   0.257   9.281 -0.4259 -0.5367 -0.2238
 2872SOL    HW110057   3.206   0.185   9.241 -1.3581 -0.9618  1.5707
 2872SOL    HW210058   3.197   0.333   9.270 -0.4318 -0.5369 -0.1967
 2873SOL     OW10059   7.686   0.231  10.510 -0.4233 -0.4762 -0.2536
 2873SOL    HW110060   7.684   0.240  10.605 -0.9902 -1.5464 -0.1519
 2873SOL    HW210061   7.611   0.283  10.480  0.1705  0.4383 -0.1802
 2874SOL     OW10062   2.616   3.092  11.786 -0.2483  0.5164 -0.0066
 2874SOL    HW110063   2.530   3.088  11.827 -0.1800  1.3419  0.2257
 2874SOL    HW210064   2.598   3.079  11.692 -0.4848 -0.5445  0.1697
 2875SOL     OW10065   5.735   5.156   6.928  0.5782 -0.2719 -0.0196
 2875SOL    HW110066   5.752   5.065   6.952  0.2159 -0.3196  0.0518
 2875SOL    HW210067   5.785   5.208   6.991 -0.3628 -0.3943  0.8401
 2876SOL     OW10068   2.104   3.021  10.484 -0.4426  0.5831  0.1788
 2876SOL    HW110069   2.051   2.948  10.516 -3.2659  1.9461 -1.0524
 2876SOL    HW210070   2.128   3.070  10.562  0.1029 -0.7167  0.8646
 2877SOL     OW10071   4.562   2.351   5.558  0.2476  0.1002 -0.2305
 2877SOL    HW110072   4.626   2.398   5.505  1.4697 -0.4800  0.6739
 2877SOL    HW210073   4.546   2.407   5.633 -1.8921  1.1668 -1.4075
 2878SOL     OW10074   0.046   6.085   5.575  0.0635 -0.2967 -0.5300
 2878SOL    HW110075  -0.012   6.093   5.500 -0.8359 -1.7977 -0.0333
 2878SOL    HW210076   0.132   6.109   5.541 -0.7447  1.5993 -1.3626
 2879SOL     OW10077   1.878   5.210   0.400  0.1169 -0.1258  0.3360
 2879SOL    HW110078   1.971   5.217   0.419  0.5763 -0.5331 -1.6013
 2879SOL    HW210079   1.843   5.297   0.422  1.3471  0.7166 -0.8229
 2880SOL     OW10080   6.136   5.878   6.365 -0.0399  0.3487 -0.1522
 2880SOL    HW110081   6.197   5.858   6.294 -1.1927 -1.9440 -0.5749
 2880SOL    HW210082   6.187   5.934   6.424  1.2030  1.7160 -2.3390
 2881SOL     OW10083   0.647   2.029   3.562  0.2216 -0.1592 -0.1509
 2881SOL    HW110084   0.727   2.055   3.516  1.7711  0.5822  2.7052
 2881SOL    HW210085   0.671   2.033   3.655 -2.8673 -0.9181  0.7856
 2882SOL     OW10086   0.781   0.252   4.795  0.2529 -0.1340  0.1851
 2882SOL    HW110087   0.817   0.171   4.758 -0.0512  0.0705 -0.5872
 2882SOL    HW210088   0.764   0.307   4.718 -1.0045  0.0568  0.5893
 2883SOL     OW10089   4.800   1.781   4.147  0.2949 -0.2031  0.3630
 2883SOL    HW110090   4.721   1.765   4.095  1.2593  1.0980 -1.6117
 2883SOL    HW210091   4.767   1.789   4.237 -1.7919 -0.0034 -0.3501
 2884SOL     OW10092   4.279   7.777   5.579  0.1161  0.2141  0.3696
 2884SOL    HW110093   4.360   7.762   5.529  0.7256  0.5732  1.2268
 2884SOL    HW210094   4.286   7.867   5.610 -0.4679  0.1417  0.7255
 2885SOL     OW10095   5.072   3.489  11.226  0.1327  0.3454  0.0363
 2885SOL    HW110096   5.089   3.396  11.208 -0.1834  0.6552 -2.2336
 2885SOL    HW210097   5.003   3.488  11.292 -0.1425 -1.0617 -0.2275
 2886SOL     OW10098   2.246   5.924  12.153  0.3265 -0.2922 -0.2395
 2886SOL    HW110099   2.270   5.923  12.246  0.6612  0.8283 -0.3039
 2886SOL    HW210100   2.170   5.865  12.148 -1.0499  1.2486  1.1419
 2887SOL     OW10101   1.769   2.956  11.006 -0.8421 -0.3135 -0.1845
 2887SOL    HW110102   1.851   2.908  11.004 -0.7353 -0.1160 -0.5242
 2887SOL    HW210103   1.788   3.035  11.058 -0.8931 -0.4074 -0.0225
 2888SOL     OW10104   2.096   1.879   3.607 -0.1412  0.2085  0.0379
 2888SOL    HW110105   2.025   1.941   3.589  1.2758  1.8338 -0.2516
 2888SOL    HW210106   2.118   1.893   3.699  1.1100  1.1941 -0.3820
 2889SOL     OW10107   5.489   5.411   1.998 -0.2970 -0.1777  0.0887
 2889SOL    HW110108   5.558   5.470   1.967  0.9304 -1.9828 -0.8173
 2889SOL    HW210109   5.417   5.424   1.937  0.2448 -0.1309 -0.5550
 2890SOL     OW10110   6.341   3.723   6.421 -0.2804  0.1467  0.3139
 2890SOL    HW110111   6.386   3.801   6.451  0.7806 -0.4508  0.3436
 2890SOL    HW210112   6.384   3.651   6.467 -0.8122 -0.5071 -0.1825
 2891SOL     OW10113   0.055   2.541   4.780  0.4394  0.1407  0.0782
 2891SOL    HW110114   0.034   2.448   4.787 -3.0377  0.8386  0.8742
 2891SOL    HW210115   0.038   2.577   4.867 -1.8529  2.0504 -1.0430
 2892SOL     OW10116   0.371   5.551   3.311 -0.3925 -0.2901  0.2347
 2892SOL    HW110117   0.339   5.619   3.371 -1.2561 -0.5998  0.1334
 2892SOL    HW210118   0.293   5.501   3.287 -0.0497 -0.2324 -1.0797
 2893SOL     OW10119   7.618   5.557   2.353  0.2774 -0.3080  0.1899
 2893SOL    HW110120   7.571   5.558   2.436  0.6653 -0.4635  0.4154
 2893SOL    HW210121   7.682   5.628   2.361  1.2303 -1.1762  0.5763
 2894SOL     OW10122   0.951   0.920  10.667  0.0389 -0.1516 -0.1876
 2894SOL    HW110123   0.980   0.971  10.591 -0.8433 -0.3881 -0.6968
 2894SOL    HW210124   0.946   0.984  10.738  3.6796 -0.4026  0.5196
 2895SOL     OW10125   5.376   0.113   9.040  0.4203  0.4080 -0.4891
 2895SOL    HW110126   5.300   0.080   8.992  0.7190 -0.6688 -0.2450
 2895SOL    HW210127   5.382   0.056   9.117  1.1702  0.8123 -0.2442
 2896SOL     OW10128   3.095   4.357   9.588  0.0553  0.1096  0.2964
 2896SOL    HW110129   3.140   4.273   9.601  2.2269  1.3829  1.4425
 2896SOL    HW210130   3.099   4.372   9.494 -0.3845 -1.0377  0.0681
 2897SOL     OW10131   3.638   1.551   7.675  0.4018  0.2780  0.6440
 2897SOL    HW110132   3.630   1.646   7.665 -0.9124  0.0215 -1.7505
 2897SOL    HW210133   3.699   1.525   7.606  0.4326 -0.6503  1.0108
 2898SOL     OW10134   1.001   1.548   5.479 -0.2661 -0.7668 -0.5889
 2898SOL    HW110135   0.917   1.544   5.524 -0.5063  0.3076 -0.8947
 2898SOL    HW210136   0.979   1.577   5.390  0.4631  0.0982 -0.5076
 2899SOL     OW10137   0.880   7.310   8.458  0.4993 -0.4009 -0.4814
 2899SOL    HW110138   0.842   7.259   8.530 -1.4627 -2.6032 -2.8535
 2899SOL    HW210139   0.813   7.375   8.438  0.6173 -0.3940 -0.8586
 2900SOL     OW10140   1.623   3.321   5.861 -0.3702  0.2541 -0.5117
 2900SOL    HW110141   1.709   3.288   5.835 -0.6797 -0.5936 -0.4844
 2900SOL    HW210142   1.563   3.249   5.841 -0.9593  0.5298  0.2473
 2901SOL     OW10143   1.021   3.434   6.229 -0.3880 -0.0898  0.0523
 2901SOL    HW110144   1.017   3.517   6.276  0.5076 -0.7227  1.3057
 2901SOL    HW210145   0.931   3.401   6.230 -0.4197 -0.0189  1.2362
 2902SOL     OW10146   1.750   2.198   2.369 -0.0886  0.1411  0.0711
 2902SOL    HW110147   1.675   2.184   2.310 -0.6057  0.1625  0.7063
 2902SOL    HW210148   1.741   2.129   2.435  1.9389 -1.5244 -1.2518
 2903SOL     OW10149   1.614   2.929   2.175  0.0381 -0.4292  0.5958
 2903SOL    HW110150   1.639   2.910   2.266  0.2622 -0.7525  0.4721
 2903SOL    HW210151   1.547   2.996   2.182  0.7942  0.3068  0.9504
 2904SOL     OW10152   3.681   3.079   7.835 -0.2595  0.5534 -0.5117
 2904SOL    HW110153   3.771   3.095   7.807  0.2851 -0.2947  0.6795
 2904SOL    HW210154   3.664   3.144   7.902 -0.5143  0.6582 -0.6735
 2905SOL     OW10155   3.707   0.848   8.902  0.4905  0.1724 -0.1183
 2905SOL    HW110156   3.784   0.799   8.930 -0.5617 -1.1921  0.5520
 2905SOL    HW210157   3.700   0.920   8.965  0.2133 -0.7633  0.9642
 2906SOL     OW10158   5.792   5.670   9.467 -0.6255  0.6174  0.4116
 2906SOL    HW110159   5.738   5.651   9.391 -0.3566 -1.2047  0.6289
 2906SOL    HW210160   5.746   5.741   9.512  0.5476  3.6754 -2.7218
 2907SOL     OW10161   2.935   5.357   1.177  0.3013 -0.0997  0.1967
 2907SOL    HW110162   2.932   5.369   1.082 -1.4885  0.3028  0.2584
 2907SOL    HW210163   2.997   5.286   1.190 -0.2572 -0.9404 -1.3854
 2908SOL     OW10164   5.055   5.972   3.297 -0.4158  0.5527 -0.1005
 2908SOL    HW110165   5.054   5.964   3.202  1.1996 -3.7089  0.0273
 2908SOL    HW210166   4.964   5.959   3.324 -0.6244  0.0874 -1.0139
 2909SOL     OW10167   5.667   1.740   3.348  0.1605 -0.2897  0.6497
 2909SOL    HW110168   5.752   1.784   3.352 -0.9609  2.1058  0.1208
 2909SOL    HW210169   5.675   1.678   3.275  0.4451  2.3954 -1.7625
 2910SOL     OW10170   6.083   2.903   2.947 -0.2017 -0.3926 -0.1381
 2910SOL    HW110171   6.069   2.863   3.032 -0.9423  0.3042  0.0763
 2910SOL    HW210172   6.073   2.997   2.963 -0.6544 -0.2760 -1.0500
 2911SOL     OW10173   7.653   1.847  11.112 -0.4301  0.9181  0.2406
 2911SOL    HW110174   7.693   1.761  11.127  1.7013  1.8224  0.1070
 2911SOL    HW210175   7.623   1.874  11.199 -1.6740 -0.1904  0.1831
 2912SOL     OW10176   3.456   6.696   9.046 -0.0136  0.1111  0.1139
 2912SOL    HW110177   3.462   6.791   9.035 -0.7857  0.5471  2.7693
 2912SOL    HW210178   3.364   6.676   9.026 -0.0057  0.0112  0.1790
 2913SOL     OW10179   3.435   2.993   4.431  0.7166  0.0768  0.4979
 2913SOL    HW110180   3.348   2.956   4.426  0.0769  1.6168 -0.4807
 2913SOL    HW210181   3.469   2.989   4.342  0.5899  1.8103  0.3306
 2914SOL     OW10182   3.125   2.833  11.886 -0.5231 -0.4076  0.3655
 2914SOL    HW110183   3.083   2.896  11.827  1.7797 -0.3264 -1.3105
 2914SOL    HW210184   3.211   2.870  11.905  1.9599 -3.8519 -2.5841
 2915SOL     OW10185   7.909   7.511  11.581 -0.4111 -0.1362 -0.5053
 2915SOL    HW110186   7.889   7.573  11.511 -1.9485  0.3308  0.2925
 2915SOL    HW210187   7.965   7.445  11.540 -0.4337  0.6777 -1.8925
 2916SOL     OW10188   0.515   2.459   9.668 -0.1095 -0.1817  0.1237
 2916SOL    HW110189   0.591   2.404   9.649 -1.1923 -1.8086  0.2565
 2916SOL    HW210190   0.456   2.402   9.718 -1.6731  0.8263 -0.4812
 2917SOL     OW10191   1.469   7.668   6.793 -0.4365 -0.6587 -0.1732
 2917SOL    HW110192   1.468   7.612   6.870  0.0068 -2.3175 -1.3278
 2917SOL    HW210193   1.378   7.695   6.781 -0.9350 -2.3508 -0.4191
 2918SOL     OW10194   7.921   4.514   4.021 -0.5030  0.4375 -0.1257
 2918SOL    HW110195   7.924   4.599   4.064 -1.6141  1.1216 -1.3265
 2918SOL    HW210196   7.993   4.517   3.958 -0.6421  0.5605 -0.2802
 2919SOL     OW10197   7.153   1.406   6.688 -0.1791  0.5748  0.0590
 2919SOL    HW110198   7.199   1.468   6.632  0.4611  0.1020  0.0549
 2919SOL    HW210199   7.061   1.430   6.679 -0.3048 -0.5198 -2.5229
 2920SOL     OW10200   6.893   5.286   5.048  0.3418  0.1657 -0.2193
 2920SOL    HW110201   6.867   5.260   5.137 -1.7831 -0.7434 -1.0545
 2920SOL    HW210202   6.890   5.205   4.998 -0.0565  0.9449 -1.4814
 2921SOL     OW10203   1.375   2.280  10.956 -0.1896 -0.2185  0.1454
 2921SOL    HW110204   1.325   2.350  10.914 -0.8408 -0.4775  0.4725
 2921SOL    HW210205   1.309   2.228  11.003  0.3428 -0.7725  0.2956
 2922SOL     OW10206   5.473   6.690   6.912  0.0897  0.5492 -0.1248
 2922SOL    HW110207   5.402   6.638   6.874 -1.1348  1.9059  0.2065
 2922SOL    HW210208   5.517   6.729   6.836 -0.6173  1.0717 -0.2767
 2923SOL     OW10209   6.987   3.991  10.111  0.6003  0.4003 -0.1247
 2923SOL    HW110210   7.039   4.039  10.175 -0.4539  0.0954  0.9890
 2923SOL    HW210211   7.028   3.904  10.107  0.9524  0.5691 -0.2376
 2924SOL     OW10212   7.128   6.082   9.844 -0.3823 -0.0234  0.1989
 2924SOL    HW110213   7.205   6.031   9.869  0.1538 -0.1225 -1.5503
 2924SOL    HW210214   7.143   6.168   9.883  0.7987  0.0625 -0.4046
 2925SOL     OW10215   1.560   2.458   9.019 -0.2314 -0.6642  0.2762
 2925SOL    HW110216   1.613   2.416   9.086  0.5746 -2.1837 -1.2295
 2925SOL    HW210217   1.551   2.392   8.950 -1.8282  0.4871 -0.7051
 2926SOL     OW10218   5.174   3.167   4.768 -0.0497 -0.1653 -0.3927
 2926SOL    HW110219   5.096   3.221   4.754  0.5852  0.9551  0.2112
 2926SOL    HW210220   5.237   3.199   4.704  0.5553  0.2926  0.4090
 2927SOL     OW10221   5.788   6.320   3.098 -0.3812  0.4892 -0.2629
 2927SOL    HW110222   5.798   6.261   3.023 -0.3093  0.4576 -0.2278
 2927SOL    HW210223   5.786   6.262   3.174 -0.9998  0.4727 -0.2795
 2928SOL     OW10224   0.581   2.148   4.768 -0.2005 -0.5251 -0.9000
 2928SOL    HW110225   0.490   2.117   4.764 -0.8425  0.8811  1.1313
 2928SOL    HW210226   0.632   2.069   4.787 -1.1398 -1.1486 -0.8720
 2929SOL     OW10227   3.349   4.554   1.836 -0.1518 -0.0568 -0.1212
 2929SOL    HW110228   3.413   4.483   1.844  1.4077  1.3468  0.4528
 2929SOL    HW210229   3.267   4.510   1.813  0.9135 -1.9642 -0.4894
 2930SOL     OW10230   2.565   6.639   6.442  0.3377 -0.2011 -0.3826
 2930SOL    HW110231   2.599   6.589   6.515  0.8156 -0.5513 -0.8326
 2930SOL    HW210232   2.636   6.700   6.420  0.7582 -1.0375 -1.4258
 2931SOL     OW10233   0.941   7.546   2.045 -0.4058  0.4574 -0.1704
 2931SOL    HW110234   0.925   7.455   2.021  1.0895  0.1250 -0.0145
 2931SOL    HW210235   1.015   7.541   2.106 -0.5691  1.7447  0.1489
 2932SOL     OW10236   1.363   0.116   7.309  0.4372 -0.1112  0.1889
 2932SOL    HW110237   1.355   0.124   7.404  3.6347 -2.2098  0.7544
 2932SOL    HW210238   1.306   0.043   7.286  0.2978 -0.1300  0.5953
 2933SOL     OW10239   4.713   5.952  11.735  0.3513 -0.0100 -0.6173
 2933SOL    HW110240   4.665   5.897  11.797 -2.3036  0.0974 -2.4531
 2933SOL    HW210241   4.762   5.890  11.681  0.6788 -0.2536 -0.0551
 2934SOL     OW10242   1.202   0.222   1.437 -0.1149 -0.3992 -0.2615
 2934SOL    HW110243   1.285   0.256   1.406 -1.0362  1.8831 -0.4298
 2934SOL    HW210244   1.153   0.200   1.358 -0.5130  0.4851 -0.2772
 2935SOL     OW10245   3.211   1.682  10.518  0.3895 -0.3794  0.6109
 2935SOL    HW110246   3.185   1.772  10.496  0.0374 -0.5229  0.4293
 2935SOL    HW210247   3.256   1.650  10.440  1.3252 -0.0553  1.0067
 2936SOL     OW10248   5.357   4.707   8.368  0.2373 -0.3242  0.2202
 2936SOL    HW110249   5.445   4.690   8.335  0.0208 -0.4103 -0.3213
 2936SOL    HW210250   5.299   4.661   8.307 -0.2255  0.3851  0.1069
 2937SOL     OW10251   6.681   1.636   5.056 -0.1930 -0.2953 -0.0862
 2937SOL    HW110252   6.650   1.545   5.054 -1.0780 -0.0059  0.4656
 2937SOL    HW210253   6.677   1.661   5.148  1.8153 -0.2768  0.0511
 2938SOL     OW10254   6.763   3.282  11.141  0.0836 -0.2278 -0.0388
 2938SOL    HW110255   6.857   3.262  11.142  0.2079  0.1944 -1.3053
 2938SOL    HW210256   6.724   3.208  11.095  0.0818  0.5871 -1.4090
 2939SOL     OW10257   0.897   3.529   4.955  0.5735 -0.4390 -0.0771
 2939SOL    HW110258   0.918   3.622   4.961  0.8720 -0.5371  0.5171
 2939SOL    HW210259   0.816   3.526   4.904  0.6029  0.1396 -0.1671
 2940SOL     OW10260   4.055   0.185   7.819 -0.7581 -0.0012 -0.8760
 2940SOL    HW110261   4.134   0.229   7.786 -0.1602 -0.3747  0.0287
 2940SOL    HW210262   4.042   0.221   7.906 -0.3017 -1.5127 -0.1383
 2941SOL     OW10263   2.551   7.582   8.406  0.5024 -0.3906 -0.2757
 2941SOL    HW110264   2.471   7.599   8.355  0.1868  0.7495  0.5626
 2941SOL    HW210265   2.613   7.548   8.342  0.5382  2.1933 -1.7547
 2942SOL     OW10266   2.877   1.715  12.326  0.5610  0.3516 -0.3644
 2942SOL    HW110267   2.826   1.723  12.245 -0.5171  0.8642  0.3348
 2942SOL    HW210268   2.925   1.798  12.332 -0.9511  1.2068  0.5329
 2943SOL     OW10269   7.002   7.258   5.128 -0.0453 -0.2945  0.0368
 2943SOL    HW110270   6.972   7.321   5.063 -0.2356 -1.6894 -1.2703
 2943SOL    HW210271   7.096   7.251   5.113 -0.2014 -1.1519 -0.5873
 2944SOL     OW10272   2.701   1.441   1.776  0.4114 -0.1778  0.6368
 2944SOL    HW110273   2.637   1.390   1.727 -0.2501  0.2522  1.0201
 2944SOL    HW210274   2.762   1.474   1.710 -0.9949  1.1727 -0.0531
 2945SOL     OW10275   7.904   1.372   6.135 -0.0949  0.1436  0.5411
 2945SOL    HW110276   7.955   1.417   6.203 -0.3731  0.4745  0.5351
 2945SOL    HW210277   7.820   1.352   6.178 -0.2412  0.2816  0.3189
 2946SOL     OW10278   1.616   2.996   9.690  0.0502  0.1575 -0.0070
 2946SOL    HW110279   1.521   2.996   9.673  0.2996  2.3733 -1.8551
 2946SOL    HW210280   1.638   3.088   9.699  1.9786 -0.3601  1.0256
 2947SOL     OW10281   4.686   0.452   9.595 -0.3095  0.3038  0.0095
 2947SOL    HW110282   4.720   0.421   9.678  1.6902  1.3436 -0.3570
 2947SOL    HW210283   4.683   0.374   9.539  0.8440  0.0493  0.2838
 2948SOL     OW10284   3.355   5.144   2.790 -0.3869  0.1849  0.0290
 2948SOL    HW110285   3.300   5.129   2.867  0.6180  2.3121  1.2253
 2948SOL    HW210286   3.443   5.119   2.817  0.1080  1.6386 -0.1337
 2949SOL     OW10287   7.518   3.382   0.846 -0.3910  0.4363  0.3908
 2949SOL    HW110288   7.534   3.425   0.930  1.1341  0.4517  0.1298
 2949SOL    HW210289   7.566   3.299   0.852  2.0526  1.6073 -1.4000
 2950SOL     OW10290   2.118   2.643   5.979  0.0777 -0.3321 -0.3900
 2950SOL    HW110291   2.119   2.618   6.071  0.4674  0.3937 -0.1983
 2950SOL    HW210292   2.026   2.662   5.960 -0.1796 -1.5572 -0.4511
 2951SOL     OW10293   1.255   4.588   3.637  0.7301  0.0521  0.0067
 2951SOL    HW110294   1.215   4.577   3.723  2.7197  0.0746  0.9952
 2951SOL    HW210295   1.189   4.555   3.576 -0.3112 -1.0155  1.6119
 2952SOL     OW10296   5.817   7.682   5.357  0.2881 -0.1182 -0.0560
 2952SOL    HW110297   5.902   7.699   5.398  0.6012  0.8315 -1.0523
 2952SOL    HW210298   5.774   7.767   5.357 -0.2860 -0.4092 -0.4114
 2953SOL     OW10299   2.451   2.892   1.424  0.6739  0.5309 -0.6170
 2953SOL    HW110300   2.519   2.934   1.371  0.9406 -1.0124 -1.5669
 2953SOL    HW210301   2.390   2.856   1.359 -0.9428  1.6995  0.2216
 2954SOL     OW10302   1.781   1.544   8.874 -0.2873  0.3147 -0.2710
 2954SOL    HW110303   1.714   1.475   8.867  0.9312 -1.1060  1.1752
 2954SOL    HW210304   1.859   1.505   8.833  0.5492  0.6372  0.9655
 2955SOL     OW10305   1.798   5.329   2.025  0.0407 -0.3412  0.3396
 2955SOL    HW110306   1.742   5.385   2.079 -0.3594  0.0376 -0.4530
 2955SOL    HW210307   1.865   5.297   2.085 -0.2763  0.2365  1.0133
 2956SOL     OW10308   1.878   1.076   2.774 -0.0879  0.1112 -0.2058
 2956SOL    HW110309   1.866   1.158   2.727 -1.8587  0.1905  0.3175
 2956SOL    HW210310   1.819   1.014   2.731 -0.0261 -0.4237  0.4618
 2957SOL     OW10311   1.553   4.480   1.450  0.3438 -0.2311 -0.0676
 2957SOL    HW110312   1.589   4.480   1.538  0.2368  0.5010 -0.0101
 2957SOL    HW210313   1.604   4.415   1.402 -0.4945 -1.6522  0.8796
 2958SOL     OW10314   4.770   3.878   8.639 -0.7691 -0.5187  0.5560
 2958SOL    HW110315   4.691   3.923   8.667  0.7513  1.9755  1.1320
 2958SOL    HW210316   4.839   3.943   8.647  1.1208 -2.1329 -1.3941
 2959SOL     OW10317   2.275   1.822   6.461  0.0138  0.0143 -0.6118
 2959SOL    HW110318   2.216   1.799   6.389 -0.7869  1.3209 -0.4133
 2959SOL    HW210319   2.220   1.824   6.539  0.2022  1.6387 -0.4814
 2960SOL     OW10320   5.846   6.056  11.645  0.1379  0.2777 -0.2733
 2960SOL    HW110321   5.800   6.089  11.722 -0.7261  0.0674 -0.6893
 2960SOL    HW210322   5.788   6.077  11.571  0.4355 -0.5244 -0.7468
 2961SOL     OW10323   1.889   5.027   5.577 -0.4562 -0.1255  0.0265
 2961SOL    HW110324   1.974   4.985   5.565 -0.3917 -0.5645  1.7575
 2961SOL    HW210325   1.902   5.089   5.649 -1.6652 -0.4752  0.5886
 2962SOL     OW10326   1.388   7.052   4.667 -0.1073  0.0745 -0.0350
 2962SOL    HW110327   1.363   7.117   4.734 -3.3726 -0.7664 -0.2390
 2962SOL    HW210328   1.448   7.099   4.609 -0.4193  2.1342  1.2001
 2963SOL     OW10329   3.249   0.133   1.586 -0.2272 -0.6723 -0.3136
 2963SOL    HW110330   3.186   0.166   1.523 -1.2453 -2.2289 -0.1807
 2963SOL    HW210331   3.298   0.210   1.615 -1.2716  0.3941 -1.3054
 2964SOL     OW10332   0.694   2.982   5.959  0.4208  0.6338 -0.0335
 2964SOL    HW110333   0.660   2.988   5.870 -0.8363  1.8923  0.4907
 2964SOL    HW210334   0.640   3.043   6.010 -1.0280 -2.2319  2.2600
 2965SOL     OW10335   3.539   6.862   4.703  0.4482 -0.3892  0.7997
 2965SOL    HW110336   3.453   6.827   4.723 -0.7886  1.4607 -0.8703
 2965SOL    HW210337   3.558   6.923   4.774 -0.5792  0.7133  0.1540
 2966SOL     OW10338   4.256   3.400   1.389  0.0114  0.3049 -0.1426
 2966SOL    HW110339   4.281   3.344   1.462  0.6545 -0.4711 -0.9388
 2966SOL    HW210340   4.335   3.406   1.335 -0.5905  0.4729 -1.0240
 2967SOL     OW10341   7.236   3.682   8.651  0.0007  0.0202 -0.1250
 2967SOL    HW110342   7.179   3.758   8.657 -0.8134 -0.6772  1.8077
 2967SOL    HW210343   7.194   3.625   8.587 -1.5226 -0.4619  1.2297
 2968SOL     OW10344   2.838   4.446   4.022  0.3701 -0.1526 -0.0837
 2968SOL    HW110345   2.923   4.411   3.998 -0.3070 -1.5285 -0.5379
 2968SOL    HW210346   2.775   4.390   3.977 -0.8011  0.2476  1.0105
 2969SOL     OW10347   6.095   6.125   2.074  0.4278 -0.0326 -0.1798
 2969SOL    HW110348   6.109   6.179   1.997 -0.6859  1.1204  0.3868
 2969SOL    HW210349   6.102   6.186   2.148  1.2285 -1.0642  0.6304
 2970SOL     OW10350   5.124   5.881  11.533 -0.0149 -0.1162 -0.1554
 2970SOL    HW110351   5.168   5.896  11.449  1.6449  0.5799  0.7989
 2970SOL    HW210352   5.129   5.786  11.546 -0.5977 -0.2764 -0.9789
 2971SOL     OW10353   4.867   4.543   8.729  0.6544  0.5400 -0.0211
 2971SOL    HW110354   4.774   4.557   8.745  0.4887  1.8696 -1.7348
 2971SOL    HW210355   4.884   4.453   8.756 -0.8979  0.5852  1.2177
 2972SOL     OW10356   4.965   7.372  10.275 -0.0973 -0.6531  0.3848
 2972SOL    HW110357   4.993   7.332  10.358 -0.1004 -2.3397 -0.3788
 2972SOL    HW210358   5.046   7.382  10.225  0.0743  1.4979  1.0087
 2973SOL     OW10359   7.857   2.440   4.354  0.2471 -0.8286  0.5177
 2973SOL    HW110360   7.823   2.514   4.405  0.5087  0.3072 -0.8899
 2973SOL    HW210361   7.833   2.363   4.405 -2.0523  0.0843  0.9212
 2974SOL     OW10362   0.677   2.080  10.393 -0.1348  0.1377 -0.0539
 2974SOL    HW110363   0.605   2.086  10.330 -1.1742 -0.9765  0.9726
 2974SOL    HW210364   0.701   2.171  10.410  0.7297  0.4761 -2.6131
 2975SOL     OW10365   4.004   6.889  11.699 -0.0207  0.5432  0.3658
 2975SOL    HW110366   4.004   6.858  11.790  0.4418  1.1552  0.5818
 2975SOL    HW210367   4.068   6.960  11.698 -1.0885  1.5308 -0.0911
 2976SOL     OW10368   4.049   1.721   7.763  0.0714  0.2245 -0.4756
 2976SOL    HW110369   4.094   1.644   7.730  0.6800  0.0108  0.7874
 2976SOL    HW210370   4.070   1.723   7.856 -0.7829  1.3373 -0.2823
 2977SOL     OW10371   7.036   2.663   6.113 -0.0919 -0.1420 -0.2179
 2977SOL    HW110372   7.052   2.572   6.086 -0.0240 -0.0916 -0.3522
 2977SOL    HW210373   7.084   2.715   6.048  0.9409 -0.0455  0.6082
 2978SOL     OW10374   0.127   7.111   7.216 -0.1171 -0.6150  0.1961
 2978SOL    HW110375   0.214   7.087   7.248 -0.4628  0.4077  2.0696
 2978SOL    HW210376   0.133   7.206   7.200 -0.6504 -0.6959 -0.5277
 2979SOL     OW10377   2.673   6.638   7.370  0.2039  0.0366 -0.1423
 2979SOL    HW110378   2.691   6.544   7.380 -1.0661 -0.3491 -1.0714
 2979SOL    HW210379   2.579   6.642   7.352  0.1885  1.5210  0.1384
 2980SOL     OW10380   0.250   1.401   2.811 -0.6608 -0.4499  0.2543
 2980SOL    HW110381   0.276   1.428   2.899  0.4296  1.0046 -0.4849
 2980SOL    HW210382   0.255   1.305   2.813 -1.4266 -0.4842  1.9812
 2981SOL     OW10383   5.427   1.090  11.780  0.1712  0.2387 -0.0463
 2981SOL    HW110384   5.480   1.088  11.860 -0.8327  0.6804  0.6508
 2981SOL    HW210385   5.345   1.130  11.807 -0.0175  0.8161 -1.4162
 2982SOL     OW10386   1.477   0.983   6.987 -0.5091  0.0450  0.0974
 2982SOL    HW110387   1.440   0.897   6.966 -1.4692  0.3895  0.3007
 2982SOL    HW210388   1.456   0.996   7.080 -0.2323  0.4283  0.1072
 2983SOL     OW10389   6.879   5.492   5.247  0.2913  0.5018 -0.1965
 2983SOL    HW110390   6.838   5.411   5.277 -0.4466  1.0305  0.2217
 2983SOL    HW210391   6.943   5.513   5.315  1.3237 -0.3384 -0.8636
 2984SOL     OW10392   1.662   3.014   1.742 -0.4093  0.3730  0.1056
 2984SOL    HW110393   1.586   2.965   1.772 -0.5972  0.6152  0.0218
 2984SOL    HW210394   1.737   2.964   1.776 -0.6013  1.5397  2.4660
 2985SOL     OW10395   3.077   6.867   7.422 -0.0780  0.1821  0.4270
 2985SOL    HW110396   3.028   6.831   7.348 -1.0321 -1.2815  1.7136
 2985SOL    HW210397   3.149   6.805   7.436  0.3803  0.7072  0.4476
 2986SOL     OW10398   3.143   3.997   8.424 -0.1945  0.5793 -0.0669
 2986SOL    HW110399   3.231   4.007   8.388  0.9913 -0.1786  2.4147
 2986SOL    HW210400   3.097   3.943   8.359  1.4665  0.1455 -0.9481
 2987SOL     OW10401   4.915   3.918   1.840 -0.1140 -0.2279 -0.2565
 2987SOL    HW110402   4.943   3.961   1.921 -0.2957  0.8315 -0.7357
 2987SOL    HW210403   4.954   3.831   1.845  0.3078 -0.0064  0.7267
 2988SOL     OW10404   7.597   6.166   5.590 -0.3763 -0.0660  0.2264
 2988SOL    HW110405   7.619   6.141   5.501 -0.0800  2.0995 -0.3750
 2988SOL    HW210406   7.501   6.166   5.592 -0.4018  0.8442 -0.4193
 2989SOL     OW10407   0.255   2.041  12.013 -0.3324 -0.1485  0.6207
 2989SOL    HW110408   0.261   2.038  11.918  2.8373 -1.4312  0.7179
 2989SOL    HW210409   0.198   2.116  12.032 -2.5822 -0.9689 -2.2301
 2990SOL     OW10410   0.870   3.399   3.070 -0.6155  0.4295 -0.3933
 2990SOL    HW110411   0.880   3.339   3.144 -2.6090  0.7009  0.1614
 2990SOL    HW210412   0.927   3.363   3.002  1.4370  0.2799  1.3043
 2991SOL     OW10413   2.994   0.075   1.857 -0.1511 -0.7105  0.0394
 2991SOL    HW110414   2.992   0.009   1.927 -0.8458 -0.6167  0.1138
 2991SOL    HW210415   3.078   0.120   1.870  0.4333 -1.7042 -0.1354
 2992SOL     OW10416   1.940   3.466  10.520  0.3333 -0.4276  0.2443
 2992SOL    HW110417   1.918   3.560  10.518 -2.3096 -0.9684  0.3759
 2992SOL    HW210418   2.013   3.460  10.582  0.6628  1.5512  0.1171
 2993SOL     OW10419   7.453   3.686   1.625  0.5865 -0.1791  0.5602
 2993SOL    HW110420   7.470   3.774   1.590  2.2295 -1.2498 -1.6107
 2993SOL    HW210421   7.358   3.682   1.631  0.4308  1.5241  0.0326
 2994SOL     OW10422   5.701   2.687  10.525  0.3381 -0.1819  0.0938
 2994SOL    HW110423   5.658   2.691  10.440 -0.7089  2.1555  0.6686
 2994SOL    HW210424   5.649   2.625  10.576 -1.2888  1.1686  0.1582
 2995SOL     OW10425   1.920   0.001   2.919  0.3517 -0.1303  0.2749
 2995SOL    HW110426   1.861  -0.074   2.912  1.8370 -1.2286 -0.9822
 2995SOL    HW210427   1.862   0.077   2.915 -1.1055 -1.1744  0.6195
 2996SOL     OW10428   3.481   5.818  10.787 -0.3777 -0.5358  0.3388
 2996SOL    HW110429   3.402   5.775  10.752 -0.3373 -0.8662  0.6414
 2996SOL    HW210430   3.553   5.760  10.763 -0.3981 -1.0136  1.3515
 2997SOL     OW10431   0.810   0.842   2.651 -0.1336 -0.5197  0.5578
 2997SOL    HW110432   0.889   0.876   2.610 -0.6991 -0.5225 -0.5774
 2997SOL    HW210433   0.807   0.750   2.624 -0.7423 -0.4091  0.2378
 2998SOL     OW10434   5.024   0.933   3.792  0.3125 -0.2780 -0.3621
 2998SOL    HW110435   5.012   0.860   3.730 -1.2132  0.7945 -1.3946
 2998SOL    HW210436   5.097   0.905   3.848 -0.4738 -2.7646 -0.4616
 2999SOL     OW10437   2.745   0.087   4.387 -0.8143  0.3249 -0.4179
 2999SOL    HW110438   2.680   0.127   4.328 -1.9955 -2.0585 -0.8793
 2999SOL    HW210439   2.704   0.092   4.473 -0.8370  0.3478 -0.4298
 3000SOL     OW10440   0.330   3.655   7.770 -0.4910  0.0293 -0.2443
 3000SOL    HW110441   0.307   3.674   7.679 -1.3167 -0.1898 -0.0925
 3000SOL    HW210442   0.304   3.733   7.819 -0.7221 -0.1357 -0.0993
 3001SOL     OW10443   7.846   5.174  10.797 -0.1249 -0.2221 -0.1186
 3001SOL    HW110444   7.840   5.270  10.797  0.7298 -0.1542 -0.4010
 3001SOL    HW210445   7.778   5.145  10.737 -0.5829  0.1889  0.1944
 3002SOL     OW10446   0.880   6.897   1.891  0.3929  0.1756  0.3609
 3002SOL    HW110447   0.855   6.813   1.929 -1.2840  0.9272  1.0147
 3002SOL    HW210448   0.815   6.959   1.924  1.3914  1.6830 -0.3626
 3003SOL     OW10449   0.806   2.960   2.092  0.4288  0.2220 -0.2889
 3003SOL    HW110450   0.896   2.991   2.105 -0.1250  2.3157 -0.9562
 3003SOL    HW210451   0.800   2.880   2.144  2.6464  0.0552 -0.1922
 3004SOL     OW10452   5.449   1.039   3.289  0.3319  0.2670 -0.0148
 3004SOL    HW110453   5.452   1.007   3.379  2.5423  0.1855 -0.0563
 3004SOL    HW210454   5.383   0.984   3.246 -0.3179 -0.0996  1.3854
 3005SOL     OW10455   6.126   7.717   7.663 -0.2664  0.0329  0.0688
 3005SOL    HW110456   6.070   7.640   7.676  1.0641 -0.8351  0.9180
 3005SOL    HW210457   6.084   7.786   7.714 -0.0586 -0.8768  1.5227
 3006SOL     OW10458   2.136   5.074   1.990 -0.3430 -0.4326  0.3292
 3006SOL    HW110459   2.210   5.014   1.983 -0.1972 -0.2109 -0.0452
 3006SOL    HW210460   2.176   5.161   1.998 -0.4213 -0.5662  4.0334
 3007SOL     OW10461   2.287   5.346  11.601 -0.4848 -0.8769  0.1768
 3007SOL    HW110462   2.285   5.283  11.529  2.0783 -0.6151 -0.2274
 3007SOL    HW210463   2.327   5.297  11.673 -1.2874 -0.5784  0.8325
 3008SOL     OW10464   2.971   1.539   5.258 -0.2569 -0.5858  0.2521
 3008SOL    HW110465   3.056   1.544   5.214  1.5672 -1.2240  3.3622
 3008SOL    HW210466   2.930   1.461   5.221  1.2290 -1.1837 -0.2330
 3009SOL     OW10467   3.931   3.088  11.061  0.2107  0.1749 -0.2736
 3009SOL    HW110468   3.993   3.160  11.075 -2.2181  2.5256 -0.6329
 3009SOL    HW210469   3.922   3.048  11.148  1.4576  0.4067 -0.0091
 3010SOL     OW10470   1.675   1.047   2.520  0.0778 -0.8724 -0.2528
 3010SOL    HW110471   1.673   1.128   2.572 -0.8994 -3.2968  3.9593
 3010SOL    HW210472   1.584   1.024   2.508  0.3436 -1.1880 -1.8229
 3011SOL     OW10473   2.482   5.319   7.246 -0.1047  0.5962 -0.1273
 3011SOL    HW110474   2.406   5.372   7.220 -0.5290  1.1798  2.1506
 3011SOL    HW210475   2.476   5.312   7.341  2.3008  0.0201  0.0528
 3012SOL     OW10476   5.585   0.093   9.534 -0.5985  0.4950 -0.7650
 3012SOL    HW110477   5.635   0.113   9.455 -1.1934  0.1547 -1.2455
 3012SOL    HW210478   5.632   0.021   9.575  0.0325  1.0549 -0.4932
 3013SOL     OW10479   4.911   7.391   9.321  0.1314  0.0641  0.1105
 3013SOL    HW110480   4.880   7.330   9.254  0.1263 -0.0978  0.2603
 3013SOL    HW210481   4.834   7.444   9.342  0.1949  0.2772 -0.1859
 3014SOL     OW10482   1.697   7.245   2.363  0.3494  0.4011  0.2479
 3014SOL    HW110483   1.616   7.289   2.334  0.0406 -0.5950 -0.4455
 3014SOL    HW210484   1.720   7.289   2.445 -1.9639 -0.5436  1.4922
 3015SOL     OW10485   3.764   1.626   7.969 -0.7073 -0.6702  0.0170
 3015SOL    HW110486   3.808   1.541   7.957 -3.3269 -2.2959  1.0219
 3015SOL    HW210487   3.803   1.661   8.049  1.7502  0.0679 -1.4143
 3016SOL     OW10488   5.429   6.334  11.342  0.3135  0.0669 -0.7075
 3016SOL    HW110489   5.464   6.342  11.253  0.0080  1.1353 -0.7411
 3016SOL    HW210490   5.360   6.268  11.333 -1.3184  1.8061 -1.8007
 3017SOL     OW10491   4.760   1.658   6.713 -0.5110 -0.0266 -0.7811
 3017SOL    HW110492   4.772   1.677   6.806  2.7345 -2.4361 -0.5096
 3017SOL    HW210493   4.791   1.737   6.668  1.5932 -0.2006  0.2410
 3018SOL     OW10494   6.187   2.505   0.440  0.0817 -0.0219  0.7715
 3018SOL    HW110495   6.172   2.597   0.458  2.7411  0.1242  2.8065
 3018SOL    HW210496   6.279   2.490   0.464 -0.1377 -3.0994  0.1235
 3019SOL     OW10497   0.952   1.377  11.437 -0.2273 -0.2427  0.1645
 3019SOL    HW110498   1.006   1.446  11.400 -1.5147  0.9277  0.3923
 3019SOL    HW210499   0.863   1.411  11.433 -0.5535 -0.2439  3.7646
 3020SOL     OW10500   2.560   1.844   5.597  0.5335  0.5709 -0.2326
 3020SOL    HW110501   2.632   1.891   5.640  0.1398  0.5088  0.5171
 3020SOL    HW210502   2.489   1.846   5.661 -0.2450  0.9091 -1.0797
 3021SOL     OW10503   5.692   4.472   2.963 -0.1131 -0.5107  0.1576
 3021SOL    HW110504   5.628   4.410   2.999  0.9659 -1.4227  0.5477
 3021SOL    HW210505   5.652   4.558   2.977 -0.2365 -0.8983  2.5620
 3022SOL     OW10506   1.445   2.857   0.126  0.0970 -0.1312  0.0966
 3022SOL    HW110507   1.454   2.952   0.113 -0.3527 -0.0980 -0.0087
 3022SOL    HW210508   1.534   2.823   0.117  0.1507  0.1792 -0.7282
 3023SOL     OW10509   4.245   4.058   9.522  0.2473  0.1579 -0.1218
 3023SOL    HW110510   4.189   4.095   9.454  0.0662  0.9532  0.4379
 3023SOL    HW210511   4.268   3.971   9.490 -1.5584 -0.3272 -0.2392
 3024SOL     OW10512   4.610   7.510   4.329  0.6389  0.1940  0.3277
 3024SOL    HW110513   4.526   7.556   4.326  0.3778 -0.2870  0.2784
 3024SOL    HW210514   4.665   7.556   4.266  0.4690  0.6187  0.4867
 3025SOL     OW10515   5.655   3.309   6.810  0.1120 -0.2808 -0.0912
 3025SOL    HW110516   5.686   3.220   6.823 -0.6415 -0.5265 -0.0071
 3025SOL    HW210517   5.587   3.322   6.875 -0.5103  0.0008 -0.7866
 3026SOL     OW10518   7.746   0.487   4.394 -0.5925  0.6797 -0.2704
 3026SOL    HW110519   7.838   0.469   4.375  0.6476  5.3791  0.2401
 3026SOL    HW210520   7.729   0.444   4.478  1.2402  0.1474 -0.1426
 3027SOL     OW10521   6.870   0.143  10.272 -0.1056 -0.1350  0.6827
 3027SOL    HW110522   6.940   0.125  10.208 -0.9360 -1.4745  0.1115
 3027SOL    HW210523   6.914   0.191  10.342  1.1821 -0.0777 -0.1262
 3028SOL     OW10524   5.127   1.241   1.006 -0.3375 -0.5890 -0.0608
 3028SOL    HW110525   5.182   1.254   0.929 -0.2602  1.0034  0.2208
 3028SOL    HW210526   5.154   1.310   1.066 -1.2295 -1.0620  0.9169
 3029SOL     OW10527   4.332   5.175   7.849 -0.1166 -0.1835  0.4894
 3029SOL    HW110528   4.248   5.201   7.888 -0.5516  1.0018 -1.1273
 3029SOL    HW210529   4.333   5.079   7.858 -0.0217 -0.0144  3.5822
 3030SOL     OW10530   5.914   0.208   8.396  0.0518 -0.0659 -0.6026
 3030SOL    HW110531   5.832   0.159   8.398  0.6765 -1.1921 -1.5150
 3030SOL    HW210532   5.910   0.259   8.315  0.2789 -0.1709 -0.6806
 3031SOL     OW10533   1.395   1.281   2.477 -0.3399 -0.3742  0.1020
 3031SOL    HW110534   1.375   1.187   2.486  0.3933 -0.4505  1.1796
 3031SOL    HW210535   1.464   1.284   2.412 -1.6044 -0.3966 -1.2823
 3032SOL     OW10536   2.049   4.487  10.199  0.9625 -0.2156 -0.5536
 3032SOL    HW110537   2.113   4.430  10.156  0.9974 -0.1186 -0.6307
 3032SOL    HW210538   2.086   4.505  10.285  0.8117 -0.5509 -0.4175
 3033SOL     OW10539   1.027   2.858   2.268 -0.0924 -0.1747 -0.4648
 3033SOL    HW110540   0.991   2.777   2.306 -0.7420  0.3470  0.0711
 3033SOL    HW210541   1.117   2.836   2.246 -0.4401 -1.2410 -0.9353
 3034SOL     OW10542   4.155   4.062   9.787 -0.3639 -0.1180 -0.1985
 3034SOL    HW110543   4.208   3.985   9.805 -0.5857 -0.3520 -0.5480
 3034SOL    HW210544   4.170   4.081   9.694  0.4042  0.8025  0.0970
 3035SOL     OW10545   7.404   0.817   8.778  0.1953 -0.1658 -0.3568
 3035SOL    HW110546   7.320   0.855   8.803  0.0971  1.6130 -2.8838
 3035SOL    HW210547   7.468   0.883   8.804  0.6870 -0.9110  0.3585
 3036SOL     OW10548   7.221   1.008   7.930 -0.5640 -0.4167 -0.2749
 3036SOL    HW110549   7.133   1.018   7.895 -0.9491  0.1104  0.8262
 3036SOL    HW210550   7.212   1.017   8.024  0.8928  1.3113 -0.2488
 3037SOL     OW10551   1.497   6.565   8.572 -0.3861  0.7778 -0.2048
 3037SOL    HW110552   1.427   6.584   8.634 -1.4817  0.9470 -1.4439
 3037SOL    HW210553   1.462   6.592   8.487  0.3241 -1.1206 -1.1756
 3038SOL     OW10554   3.898   6.445  10.671 -0.0504 -0.4869  0.4150
 3038SOL    HW110555   3.966   6.442  10.739  1.9767 -1.1689 -1.5071
 3038SOL    HW210556   3.910   6.364  10.621  1.6558  1.8500 -3.4615
 3039SOL     OW10557   3.350   0.088  11.041 -0.2631 -0.2945  0.1538
 3039SOL    HW110558   3.276   0.049  10.994 -0.1563 -0.7958  0.3881
 3039SOL    HW210559   3.391   0.013  11.085 -0.4186  0.1742  1.1118
 3040SOL     OW10560   3.676   6.304   7.482 -0.1060  0.0391  0.8223
 3040SOL    HW110561   3.708   6.367   7.418  0.0448  0.1825  1.0381
 3040SOL    HW210562   3.680   6.220   7.437  0.6883  0.0364  0.8803
 3041SOL     OW10563   6.916   6.536   6.888  0.4807  0.2658 -0.5490
 3041SOL    HW110564   6.968   6.482   6.947  0.5512  0.3258 -0.5558
 3041SOL    HW210565   6.826   6.529   6.921  0.7091  1.3775  0.3802
 3042SOL     OW10566   0.116   1.604   9.313  0.2796  0.1917  0.8936
 3042SOL    HW110567   0.155   1.691   9.307 -0.0480  0.2547 -0.9481
 3042SOL    HW210568   0.059   1.598   9.236  0.5741 -1.7910  0.7812
 3043SOL     OW10569   2.923   3.295   8.400 -0.4362 -0.1842  0.1069
 3043SOL    HW110570   2.857   3.327   8.340 -2.1117 -0.2958  1.8046
 3043SOL    HW210571   2.910   3.200   8.402 -1.5399 -0.0482  1.8237
 3044SOL     OW10572   1.744   6.639   2.237 -0.4535 -0.2768  0.8961
 3044SOL    HW110573   1.715   6.730   2.236  1.2157  0.4297 -3.4800
 3044SOL    HW210574   1.839   6.644   2.227 -0.3324 -2.4890  0.5454
 3045SOL     OW10575   5.854   1.070   1.321 -0.0030  0.1250  0.2039
 3045SOL    HW110576   5.856   0.985   1.276  1.0292  0.5197 -0.5399
 3045SOL    HW210577   5.934   1.114   1.293  0.1941  0.7841  1.7104
 3046SOL     OW10578   3.214   0.987   6.172  0.3156 -0.0960  0.1422
 3046SOL    HW110579   3.160   0.921   6.130 -0.5643  0.9160 -0.3798
 3046SOL    HW210580   3.167   1.009   6.253  1.0157 -0.6626  0.7188
 3047SOL     OW10581   2.636   6.061   5.101 -0.4720  0.0491  0.2451
 3047SOL    HW110582   2.614   6.085   5.011 -1.7424  1.9704  0.9907
 3047SOL    HW210583   2.730   6.047   5.100 -0.0187  2.6203 -0.9072
 3048SOL     OW10584   2.329   2.251   0.909 -0.1675  0.0064  0.2132
 3048SOL    HW110585   2.339   2.335   0.954 -0.4527 -0.8805  2.0500
 3048SOL    HW210586   2.240   2.254   0.874 -0.8885 -0.2304  1.9230
 3049SOL     OW10587   2.089   3.270   2.499  0.1870 -0.0213 -0.3074
 3049SOL    HW110588   2.057   3.273   2.589  0.8216 -1.4635 -0.0078
 3049SOL    HW210589   2.019   3.312   2.447 -1.3847 -1.4984  0.5266
 3050SOL     OW10590   0.970   7.923  11.762  0.3582  0.6263  0.6315
 3050SOL    HW110591   0.956   7.842  11.811  1.1511 -0.3676 -0.7344
 3050SOL    HW210592   0.983   7.990  11.830 -1.7951 -0.0703  1.8062
 3051SOL     OW10593   0.355   2.943  11.531 -0.4430  0.4821  0.5356
 3051SOL    HW110594   0.278   2.949  11.474  0.6495  0.7428 -0.9726
 3051SOL    HW210595   0.359   2.851  11.556 -0.8302  0.3188  0.0185
 3052SOL     OW10596   5.652   3.800   6.298 -0.0900  0.4046  0.1897
 3052SOL    HW110597   5.573   3.806   6.244 -0.4086 -3.6073 -0.0805
 3052SOL    HW210598   5.621   3.810   6.388 -1.1659 -2.0499  0.1523
 3053SOL     OW10599   2.189   6.444   8.980  0.0619 -0.2774  0.3855
 3053SOL    HW110600   2.156   6.360   8.949  0.8530 -0.2912 -0.4479
 3053SOL    HW210601   2.181   6.439   9.075  2.0866 -2.1684  0.5190
 3054SOL     OW10602   5.522   2.692   0.090 -0.1851  0.2203 -0.0183
 3054SOL    HW110603   5.600   2.677   0.143 -0.8963  1.2546  1.3794
 3054SOL    HW210604   5.551   2.677   0.000  1.5618  0.3743  0.4819
 3055SOL     OW10605   4.703   3.293   9.744 -0.2320 -0.0018  0.3325
 3055SOL    HW110606   4.698   3.293   9.648  0.6695 -1.2398  0.2642
 3055SOL    HW210607   4.735   3.380   9.767 -0.4326  0.2941 -0.4851
 3056SOL     OW10608   2.701   0.522   7.616  0.3585  0.2724 -0.3755
 3056SOL    HW110609   2.718   0.478   7.533 -1.5154 -2.6992  0.6561
 3056SOL    HW210610   2.606   0.517   7.626  0.2637  2.8959  0.8133
 3057SOL     OW10611   2.226   1.844   4.968  0.6255  0.3296 -0.2932
 3057SOL    HW110612   2.254   1.902   4.897 -0.0278  0.3683 -0.5246
 3057SOL    HW210613   2.182   1.902   5.030  1.0899  0.2756  0.0938
 3058SOL     OW10614   2.592   2.617   9.161  0.3464 -0.3808  0.0736
 3058SOL    HW110615   2.672   2.610   9.109 -0.1935  0.1132 -0.8542
 3058SOL    HW210616   2.538   2.681   9.113  0.5306  1.4264  2.1586
 3059SOL     OW10617   1.639   1.788   9.041 -0.0362 -0.1855 -0.1154
 3059SOL    HW110618   1.729   1.792   9.074  0.0710 -0.2751 -0.3921
 3059SOL    HW210619   1.600   1.716   9.090  0.5691 -1.3159 -1.2336
 3060SOL     OW10620   3.696   3.066   3.335 -0.3406  0.4510  0.3063
 3060SOL    HW110621   3.628   3.087   3.271 -0.5699  0.1328  0.4418
 3060SOL    HW210622   3.669   2.982   3.373  0.1457  0.3031  0.3375
 3061SOL     OW10623   0.207   7.474  11.256  0.6459 -0.0275 -0.3839
 3061SOL    HW110624   0.195   7.413  11.184 -1.6796  0.4065 -0.4265
 3061SOL    HW210625   0.193   7.422  11.335  1.1917 -0.0636 -0.3034
 3062SOL     OW10626   7.288   1.976   8.957  0.4947  0.6438 -0.5595
 3062SOL    HW110627   7.258   1.953   9.045 -1.5241  2.0383 -0.8190
 3062SOL    HW210628   7.319   2.066   8.965  0.8397  0.5870 -1.1785
 3063SOL     OW10629   4.938   3.109   4.519 -0.5596  0.7307 -0.0086
 3063SOL    HW110630   4.868   3.175   4.524 -0.4875  1.0232 -2.0794
 3063SOL    HW210631   4.893   3.029   4.494 -0.1622  1.0042 -1.7221
 3064SOL     OW10632   4.020   0.145   1.059  0.0461 -0.3396  0.6001
 3064SOL    HW110633   3.982   0.060   1.082 -1.1131 -0.0584 -0.1387
 3064SOL    HW210634   4.046   0.183   1.143  2.2397 -2.1119  0.8297
 3065SOL     OW10635   0.776   7.848   4.391  0.4295  0.0643  0.1812
 3065SOL    HW110636   0.734   7.895   4.319  0.2047 -0.7139 -0.1959
 3065SOL    HW210637   0.865   7.830   4.359  0.1278 -0.8546 -0.1691
 3066SOL     OW10638   1.982   2.435  11.065  0.7493  0.7160  0.3605
 3066SOL    HW110639   1.965   2.341  11.063 -0.5301  0.9346 -0.2579
 3066SOL    HW210640   2.060   2.447  11.010  0.6150  0.0702  0.0214
 3067SOL     OW10641   0.458   4.659  10.699 -0.1066 -0.6510  0.2591
 3067SOL    HW110642   0.457   4.662  10.795 -0.6783  0.4530  0.2307
 3067SOL    HW210643   0.366   4.659  10.674  0.0416 -0.5234 -0.2951
 3068SOL     OW10644   4.935   3.916  12.022  0.0244  0.0083  0.2259
 3068SOL    HW110645   4.885   3.836  12.042 -0.7783  0.1649 -0.9974
 3068SOL    HW210646   5.019   3.903  12.065 -1.1706 -0.0897  2.7442
 3069SOL     OW10647   2.510   0.687  10.452  0.3228 -0.1323 -0.2367
 3069SOL    HW110648   2.528   0.596  10.476  0.6203  0.4861  2.2312
 3069SOL    HW210649   2.434   0.710  10.505 -0.8063  0.6032 -2.0994
 3070SOL     OW10650   5.869   3.076  10.662 -0.0866  0.2914  0.6615
 3070SOL    HW110651   5.913   3.060  10.578 -0.3879 -1.2298  0.7651
 3070SOL    HW210652   5.776   3.062  10.643 -0.2768  0.9981  1.0259
 3071SOL     OW10653   4.928   2.187   7.647 -0.0818 -0.1916  0.3845
 3071SOL    HW110654   4.906   2.129   7.720 -1.1878 -1.8534 -1.1743
 3071SOL    HW210655   5.005   2.146   7.607 -0.7200 -0.4860 -0.5774
 3072SOL     OW10656   2.039   2.123   6.496 -0.1139  0.4888  0.1432
 3072SOL    HW110657   1.993   2.142   6.415 -0.3466 -0.7210 -0.0247
 3072SOL    HW210658   2.011   2.035   6.520 -0.2115  0.9067  1.6549
 3073SOL     OW10659   0.562   1.225  10.394 -0.3756  0.6313  0.7834
 3073SOL    HW110660   0.608   1.304  10.419 -0.4896  0.9514  0.0175
 3073SOL    HW210661   0.538   1.239  10.302  2.4838 -1.6099 -0.4371
 3074SOL     OW10662   4.977   6.505   1.249  0.6657 -0.3794  0.2717
 3074SOL    HW110663   5.039   6.578   1.248 -0.8527  0.9676 -0.1100
 3074SOL    HW210664   4.956   6.492   1.341 -1.0597  1.5217  0.2250
 3075SOL     OW10665   2.933   5.490   2.756 -0.1084  0.6481  0.0854
 3075SOL    HW110666   2.861   5.427   2.760  0.7994 -0.3775  1.2208
 3075SOL    HW210667   2.940   5.525   2.844 -0.8133  2.6470 -0.6108
 3076SOL     OW10668   2.708   1.625   3.279  0.3228  0.5520 -0.5492
 3076SOL    HW110669   2.645   1.650   3.211 -1.3221  1.8529  1.3317
 3076SOL    HW210670   2.666   1.551   3.324  1.0178  0.2245 -0.4342
 3077SOL     OW10671   0.927   6.306   0.298 -0.0807 -0.1885 -0.1421
 3077SOL    HW110672   0.939   6.397   0.323  1.7319 -0.0323 -1.3662
 3077SOL    HW210673   0.931   6.257   0.380  0.4488  0.7029  0.3714
 3078SOL     OW10674   0.069   2.003  11.209  0.0210 -0.0988  0.1270
 3078SOL    HW110675   0.163   2.002  11.229 -0.3658 -0.6614  2.1285
 3078SOL    HW210676   0.039   1.915  11.231 -1.3634  0.7034  1.6830
 3079SOL     OW10677   1.082   6.386   7.582  0.3183 -0.3683  0.1650
 3079SOL    HW110678   1.139   6.455   7.549 -3.1132  2.2345 -0.8407
 3079SOL    HW210679   1.082   6.399   7.677  1.8254 -0.8540  0.2571
 3080SOL     OW10680   7.420   4.248   5.725 -0.5364  0.4629  0.1856
 3080SOL    HW110681   7.408   4.153   5.732  0.4078  0.0501 -2.4722
 3080SOL    HW210682   7.392   4.268   5.635  2.5931  2.0824 -0.5556
 3081SOL     OW10683   6.239   4.148   4.895 -0.6818 -0.1760  0.4562
 3081SOL    HW110684   6.296   4.121   4.823 -0.4916  0.5664  0.3235
 3081SOL    HW210685   6.243   4.243   4.895  0.3396 -0.1803  2.2671
 3082SOL     OW10686   5.335   4.663   8.658 -0.0097  0.3778 -0.7541
 3082SOL    HW110687   5.316   4.716   8.581  2.5905  2.1012 -0.3356
 3082SOL    HW210688   5.367   4.580   8.623 -2.0620 -0.1832 -1.4313
 3083SOL     OW10689   3.830   0.388   7.800 -0.3325  0.4671 -0.2936
 3083SOL    HW110690   3.907   0.371   7.855 -0.7769 -0.2104  0.1370
 3083SOL    HW210691   3.757   0.390   7.861 -0.5653  2.0310 -0.5822
 3084SOL     OW10692   1.082   2.249  11.024  0.6389  0.5713 -0.3200
 3084SOL    HW110693   0.992   2.227  11.000  0.6345  1.6793 -1.4186
 3084SOL    HW210694   1.086   2.344  11.013  1.5567  0.7295  1.0885
 3085SOL     OW10695   6.115   3.024   5.545 -0.7543 -0.1836  0.1161
 3085SOL    HW110696   6.123   3.074   5.464  1.8340 -1.7047 -0.6761
 3085SOL    HW210697   6.054   2.953   5.523 -0.3081 -0.4087 -0.4079
 3086SOL     OW10698   3.759   4.794   1.183 -0.0145 -0.4290  0.4888
 3086SOL    HW110699   3.743   4.879   1.224  3.9357  1.3907 -1.2462
 3086SOL    HW210700   3.807   4.744   1.250 -1.8451 -1.1846  1.3037
 3087SOL     OW10701   7.842   5.350   7.205 -0.2091  0.0252  0.2774
 3087SOL    HW110702   7.786   5.364   7.281  0.9654 -1.1475  1.4014
 3087SOL    HW210703   7.863   5.256   7.207 -1.4867 -0.4382 -2.4605
 3088SOL     OW10704   4.681   7.616   2.929 -0.1146  0.1139 -0.4730
 3088SOL    HW110705   4.763   7.628   2.881 -1.2400 -0.3291 -2.6460
 3088SOL    HW210706   4.660   7.523   2.917  0.6035 -0.5851  2.7869
 3089SOL     OW10707   0.160   2.101   0.943  0.0035  0.2604 -1.3999
 3089SOL    HW110708   0.159   2.117   1.037  2.0597 -0.9028 -1.1187
 3089SOL    HW210709   0.112   2.018   0.932  0.6188 -0.1237 -1.2351
 3090SOL     OW10710   6.948   6.367   8.500 -0.2668 -0.3658 -0.2792
 3090SOL    HW110711   7.020   6.370   8.564 -0.8385  2.5192  0.3890
 3090SOL    HW210712   6.933   6.274   8.485  3.8083 -1.1424 -0.7127
 3091SOL     OW10713   6.713   5.032   6.431 -0.2556 -0.2246  0.2367
 3091SOL    HW110714   6.765   4.953   6.441  2.5878  1.3001 -1.1372
 3091SOL    HW210715   6.716   5.050   6.337 -0.2865  1.8012  0.5780
 3092SOL     OW10716   2.777   5.131   9.902 -0.1129 -0.4612  0.1640
 3092SOL    HW110717   2.721   5.120   9.825 -0.0517  0.7311 -0.0789
 3092SOL    HW210718   2.735   5.079   9.971 -1.0017 -0.3286 -0.2720
 3093SOL     OW10719   7.234   5.148   0.878  0.0326  0.3857  0.0457
 3093SOL    HW110720   7.327   5.154   0.856 -0.0679 -0.0520 -0.5319
 3093SOL    HW210721   7.226   5.192   0.962  0.5282  1.6261 -0.5431
 3094SOL     OW10722   1.419   3.474   8.772  0.7877  0.6712  0.1694
 3094SOL    HW110723   1.404   3.557   8.727 -1.3658 -0.2298 -0.9151
 3094SOL    HW210724   1.403   3.407   8.706 -0.1005 -0.6532  1.6430
 3095SOL     OW10725   1.825   3.510   9.534  0.1860 -0.1088  0.4216
 3095SOL    HW110726   1.742   3.469   9.509  0.5489 -0.9177  0.5050
 3095SOL    HW210727   1.817   3.600   9.503 -0.5954 -0.2619  0.1398
 3096SOL     OW10728   3.649   3.789   3.883  0.7826  0.5603  0.5092
 3096SOL    HW110729   3.620   3.761   3.796  0.9407 -0.1719  0.6861
 3096SOL    HW210730   3.582   3.851   3.911  1.1625  1.4459 -0.4715
 3097SOL     OW10731   5.944   5.914   2.771 -0.4969  0.1886 -0.3805
 3097SOL    HW110732   5.993   5.832   2.773 -0.2237  0.3607  0.4413
 3097SOL    HW210733   5.866   5.894   2.719 -0.3245 -0.5288 -0.3780
 3098SOL     OW10734   6.315   1.870  12.323 -0.3802 -0.1655  0.0598
 3098SOL    HW110735   6.323   1.866  12.228 -0.6558  1.3459 -0.0542
 3098SOL    HW210736   6.221   1.863  12.340 -0.3526 -0.1780  0.2069
 3099SOL     OW10737   2.128   6.704   1.193  0.6083  0.0696  0.3451
 3099SOL    HW110738   2.188   6.725   1.121  2.0418 -2.9205  0.5077
 3099SOL    HW210739   2.059   6.651   1.152 -0.2545  0.9004  0.6913
 3100SOL     OW10740   1.507   1.868   1.872 -0.2907 -0.4585 -0.5359
 3100SOL    HW110741   1.412   1.857   1.865 -0.6753  2.0529 -0.2493
 3100SOL    HW210742   1.538   1.872   1.782 -1.0156  2.1247 -0.7561
 3101SOL     OW10743   1.861   0.297   4.153 -0.3021 -0.3425  0.7045
 3101SOL    HW110744   1.775   0.266   4.183 -0.5083  1.3608  2.1087
 3101SOL    HW210745   1.842   0.381   4.110  0.5781 -0.2869  0.4049
 3102SOL     OW10746   2.939   5.199   3.052  0.0679  0.7416 -0.2550
 3102SOL    HW110747   3.024   5.228   3.086  1.0708 -0.1289 -1.8654
 3102SOL    HW210748   2.955   5.109   3.023 -1.7184  0.1680  0.4044
 3103SOL     OW10749   0.846   7.637   8.347 -0.2966 -0.0850  0.0352
 3103SOL    HW110750   0.790   7.603   8.416  1.8782 -0.9601  1.4491
 3103SOL    HW210751   0.831   7.732   8.349 -1.1839 -0.2274  0.8243
 3104SOL     OW10752   1.725   4.557   9.043  0.5674 -0.1232 -0.1226
 3104SOL    HW110753   1.721   4.468   9.078  1.3670  0.0077  0.3128
 3104SOL    HW210754   1.688   4.612   9.112 -1.3575 -0.2502 -0.9755
 3105SOL     OW10755   3.203   2.195   1.931 -0.5400  0.1749 -0.3912
 3105SOL    HW110756   3.148   2.118   1.920 -0.9017  0.4988 -0.9405
 3105SOL    HW210757   3.280   2.178   1.877 -0.2809 -0.1116  0.0669
 3106SOL     OW10758   3.530   4.045   9.420 -0.2527  0.2353 -0.0404
 3106SOL    HW110759   3.454   3.987   9.430  0.2763 -0.4579  0.0182
 3106SOL    HW210760   3.505   4.125   9.465 -1.2408  0.2919 -0.6409
 3107SOL     OW10761   0.750   3.422   5.805 -0.1877 -0.4323 -0.0306
 3107SOL    HW110762   0.731   3.397   5.895 -1.2245  1.0455  0.1993
 3107SOL    HW210763   0.672   3.395   5.756 -0.7287  1.0006 -0.0103
 3108SOL     OW10764   3.635   5.612   0.036  0.2719 -0.1559 -0.4902
 3108SOL    HW110765   3.572   5.542   0.018  0.0831  0.1814 -1.1767
 3108SOL    HW210766   3.714   5.586  -0.011  0.4864 -0.3380 -0.0289
 3109SOL     OW10767   0.318   7.105   2.969 -0.1113  0.0929 -0.4236
 3109SOL    HW110768   0.401   7.080   2.927  1.0224  1.3173  0.9868
 3109SOL    HW210769   0.288   7.025   3.013  0.5405 -0.2525 -0.5990
 3110SOL     OW10770   5.426   7.121   0.041 -0.0076  0.3726  0.2612
 3110SOL    HW110771   5.347   7.068   0.045  0.4076 -0.2688  0.0051
 3110SOL    HW210772   5.407   7.196   0.097 -0.0945 -0.7228  1.7600
 3111SOL     OW10773   7.837   2.995   0.454 -0.1517  0.0510 -0.4856
 3111SOL    HW110774   7.824   2.930   0.523 -1.6553  0.9720  0.1447
 3111SOL    HW210775   7.904   3.054   0.488  0.0403 -0.2384 -0.3659
 3112SOL     OW10776   1.276   1.144   3.825  0.1827 -0.2401 -0.4080
 3112SOL    HW110777   1.371   1.131   3.822  0.3164  0.1786  1.0518
 3112SOL    HW210778   1.265   1.228   3.869 -0.8538  0.6018 -2.1578
 3113SOL     OW10779   3.453   5.195   5.919  0.0335 -0.4232  0.5225
 3113SOL    HW110780   3.445   5.099   5.924  0.5813 -0.4464  1.0494
 3113SOL    HW210781   3.362   5.226   5.920 -0.2158 -0.9937 -1.2251
 3114SOL     OW10782   4.714   6.344   3.969 -0.2494 -0.3626  0.0496
 3114SOL    HW110783   4.772   6.406   4.012 -0.2030 -0.9836  0.9134
 3114SOL    HW210784   4.719   6.367   3.876 -0.0355  0.7464  0.3194
 3115SOL     OW10785   6.219   4.461  10.515 -0.0154  0.0204 -0.3026
 3115SOL    HW110786   6.220   4.370  10.546 -3.1701  0.2613  0.8997
 3115SOL    HW210787   6.258   4.511  10.586  1.6238 -0.3117 -0.9187
 3116SOL     OW10788   6.228   7.422   8.460 -0.3264  0.1723 -0.2428
 3116SOL    HW110789   6.300   7.362   8.444  0.2222  0.6731  0.2600
 3116SOL    HW210790   6.182   7.428   8.377  0.2860 -0.0725 -0.6088
 3117SOL     OW10791   7.720   4.745   6.579  0.1893 -0.0120  0.6304
 3117SOL    HW110792   7.687   4.820   6.628  1.3292 -0.6219  2.4145
 3117SOL    HW210793   7.656   4.675   6.595  1.6855 -0.9119  3.3130
 3118SOL     OW10794   7.508   7.642   4.816  0.2284  0.3209  0.4515
 3118SOL    HW110795   7.506   7.737   4.831 -1.0650 -0.0284  3.0686
 3118SOL    HW210796   7.601   7.618   4.826  0.5761  1.2986 -0.3058
 3119SOL     OW10797   7.651   7.329   8.327  0.3694 -0.0534  0.4414
 3119SOL    HW110798   7.597   7.407   8.343 -0.0211 -0.5338  1.5521
 3119SOL    HW210799   7.589   7.264   8.293 -0.1887 -1.1622  3.2996
 3120SOL     OW10800   1.566   7.039   9.540  0.1398 -0.6083  0.1627
 3120SOL    HW110801   1.584   6.959   9.589 -0.3682  0.1515  1.6311
 3120SOL    HW210802   1.530   7.100   9.604  1.0842  1.0238 -0.7867
 3121SOL     OW10803   7.425   7.599   9.246 -0.1499  0.3104 -0.1585
 3121SOL    HW110804   7.466   7.542   9.180 -0.7346 -0.7092  0.3357
 3121SOL    HW210805   7.496   7.618   9.308  0.5462  1.7054 -1.3089
 3122SOL     OW10806   1.834   3.346  10.788  0.2724  0.2280 -0.3678
 3122SOL    HW110807   1.895   3.294  10.841  1.4733  0.0173 -1.8552
 3122SOL    HW210808   1.881   3.428  10.771  0.0101  0.2111 -1.2329
 3123SOL     OW10809   5.543   0.863   5.765  0.3190 -0.8401  0.0541
 3123SOL    HW110810   5.595   0.875   5.685 -0.0582  0.0532 -0.0679
 3123SOL    HW210811   5.453   0.859   5.734  0.2674 -1.9684  0.3065
 3124SOL     OW10812   1.405   2.676  12.123  0.1313  0.3095  0.2596
 3124SOL    HW110813   1.409   2.702  12.031  0.8621  0.6367  0.3776
 3124SOL    HW210814   1.435   2.585  12.124 -0.9250 -0.0541  0.0444
 3125SOL     OW10815   3.478   4.926   0.718  0.1604  0.5030  0.2326
 3125SOL    HW110816   3.543   4.875   0.670  0.4198  0.1699  0.9178
 3125SOL    HW210817   3.503   5.017   0.703  1.8480  0.3650  1.8751
 3126SOL     OW10818   4.807   7.194   4.061 -0.0705 -0.0786  0.0007
 3126SOL    HW110819   4.715   7.171   4.050 -0.0153 -0.7123  0.7389
 3126SOL    HW210820   4.806   7.273   4.114 -0.1781 -1.0743  1.5608
 3127SOL     OW10821   5.756   5.459   2.431  0.1445 -0.6773 -0.6974
 3127SOL    HW110822   5.754   5.414   2.515  0.1148 -0.4094 -0.5535
 3127SOL    HW210823   5.826   5.524   2.440 -0.4013 -0.0903 -0.5865
 3128SOL     OW10824   2.476   4.333   4.507  0.2292  0.1992 -0.0820
 3128SOL    HW110825   2.525   4.255   4.483  0.9846  0.4956  0.4354
 3128SOL    HW210826   2.541   4.390   4.548 -0.5576  0.5857  0.6687
 3129SOL     OW10827   6.865   6.618   2.812  0.4994  0.1326 -0.2508
 3129SOL    HW110828   6.944   6.669   2.831  1.2474 -1.5794  1.6959
 3129SOL    HW210829   6.808   6.678   2.765  1.9906  2.1928  0.4200
 3130SOL     OW10830   1.797   1.031   6.708  0.1334 -0.4443 -0.3211
 3130SOL    HW110831   1.826   0.985   6.786  0.4065 -0.9469 -0.7119
 3130SOL    HW210832   1.706   1.005   6.696  0.6497 -1.9535 -1.2766
 3131SOL     OW10833   5.672   2.585   3.045 -0.1509  0.9457  0.2402
 3131SOL    HW110834   5.655   2.491   3.056 -0.2598  1.2643  5.0291
 3131SOL    HW210835   5.587   2.622   3.020 -0.3867 -0.0813 -0.5421
 3132SOL     OW10836   2.939   4.611   3.083  0.2945 -0.0417 -0.0920
 3132SOL    HW110837   2.854   4.645   3.057  0.1752 -1.3433 -1.4846
 3132SOL    HW210838   2.924   4.518   3.100  1.5860 -0.4882 -1.2246
 3133SOL     OW10839   3.760   0.037   4.274 -0.2109 -0.4157  0.1285
 3133SOL    HW110840   3.725   0.123   4.248 -1.5825 -1.2616 -0.9956
 3133SOL    HW210841   3.842   0.057   4.318 -0.3543  1.4659 -0.3611
 3134SOL     OW10842   2.259   0.530   1.855 -0.4174  0.4415  0.4117
 3134SOL    HW110843   2.321   0.561   1.920  0.3199  0.5139 -0.3085
 3134SOL    HW210844   2.176   0.523   1.902  0.0634  0.6410  1.3101
 3135SOL     OW10845   3.984   0.073  10.493 -0.2138 -0.1277  0.3260
 3135SOL    HW110846   3.994   0.143  10.428 -1.3210  0.8585  1.1805
 3135SOL    HW210847   4.009  -0.007  10.446 -1.5009  0.4722 -1.4905
 3136SOL     OW10848   4.378   5.432   3.660  0.0517 -0.1372  0.6703
 3136SOL    HW110849   4.428   5.462   3.584  1.2772 -0.0384  1.4916
 3136SOL    HW210850   4.411   5.344   3.677 -0.5029 -0.3132  0.8547
 3137SOL     OW10851   6.171   5.619   5.788  0.6386 -0.2533  0.2232
 3137SOL    HW110852   6.082   5.582   5.784 -0.1598  1.4858  0.6808
 3137SOL    HW210853   6.162   5.704   5.744  2.1729 -0.1881  0.0079
 3138SOL     OW10854   7.218   4.169   2.955 -0.4694 -0.2046  0.4780
 3138SOL    HW110855   7.178   4.251   2.985  0.7616  1.1512 -1.3944
 3138SOL    HW210856   7.262   4.192   2.873  1.1078 -2.4287  0.6123
 3139SOL     OW10857   0.019   6.791   8.820 -0.2001 -0.2678  0.0282
 3139SOL    HW110858   0.042   6.884   8.812  0.3898 -0.4033  0.1086
 3139SOL    HW210859  -0.052   6.779   8.757 -1.2916  0.5646  1.0733
 3140SOL     OW10860   4.969   7.139   7.726 -0.5509  0.0488  0.4710
 3140SOL    HW110861   5.006   7.182   7.649 -0.1943  2.1176  1.7125
 3140SOL    HW210862   4.930   7.059   7.693  0.8103  0.1968 -1.6310
 3141SOL     OW10863   2.761   4.179   5.589 -0.1318  0.8166 -0.5453
 3141SOL    HW110864   2.827   4.145   5.650 -0.6042  1.3571  0.2868
 3141SOL    HW210865   2.684   4.124   5.605 -0.1504  0.7265 -0.9269
 3142SOL     OW10866   5.749   7.171  10.504 -0.9103 -0.0005  0.0253
 3142SOL    HW110867   5.709   7.086  10.483 -1.0343 -0.0695  0.5267
 3142SOL    HW210868   5.695   7.206  10.574 -1.1287  0.7083 -0.4920
 3143SOL     OW10869   4.990   2.355   6.207 -0.6397 -0.2762 -0.6251
 3143SOL    HW110870   5.052   2.297   6.251 -0.2891  0.5210 -0.0437
 3143SOL    HW210871   4.928   2.381   6.275  0.0116  1.1120 -0.5182
 3144SOL     OW10872   7.761   2.669   1.758  0.7287  0.6394  0.2234
 3144SOL    HW110873   7.822   2.627   1.818  1.6370  1.1569 -0.3225
 3144SOL    HW210874   7.691   2.604   1.746  1.3100 -0.0724  0.6223
 3145SOL     OW10875   3.155   3.145   4.195  0.2871 -0.6060 -0.0826
 3145SOL    HW110876   3.223   3.212   4.188 -1.4069  1.1415 -0.6014
 3145SOL    HW210877   3.182   3.078   4.132  1.6457 -0.0790 -0.1057
 3146SOL     OW10878   7.778   7.559   4.806  0.5294 -0.4463  0.1270
 3146SOL    HW110879   7.850   7.507   4.842  1.1933  1.1131  1.1487
 3146SOL    HW210880   7.815   7.601   4.728  0.1272 -1.1263 -0.4425
 3147SOL     OW10881   7.179   7.457   6.516 -0.1708  0.3921  0.2375
 3147SOL    HW110882   7.112   7.391   6.533  0.0888 -0.2008 -0.9490
 3147SOL    HW210883   7.132   7.541   6.519 -0.7473  0.0654  0.4789
 3148SOL     OW10884   3.452   1.049   8.155 -0.2062  0.3794  0.0260
 3148SOL    HW110885   3.358   1.063   8.145 -0.2307 -0.1349 -0.5149
 3148SOL    HW210886   3.461   0.954   8.161  0.0754  0.4916  2.2620
 3149SOL     OW10887   5.295   7.657   4.685  0.3870 -0.8336  0.1394
 3149SOL    HW110888   5.372   7.689   4.639 -0.6349  0.4583 -0.7477
 3149SOL    HW210889   5.228   7.648   4.618 -0.2678 -1.9098  0.8939
 3150SOL     OW10890   7.703   2.419   7.895  0.0708 -0.0419  0.0674
 3150SOL    HW110891   7.747   2.341   7.929  0.9780  0.8282  0.9747
 3150SOL    HW210892   7.610   2.401   7.906  0.1249 -1.8388 -1.6716
 3151SOL     OW10893   1.728   0.219  10.890  0.5387  0.6284  0.7394
 3151SOL    HW110894   1.685   0.303  10.877  0.6675  0.4011 -1.6566
 3151SOL    HW210895   1.815   0.230  10.850  0.9772 -0.2905  1.4127
 3152SOL     OW10896   5.661   6.937  10.889 -0.1133  0.2264 -0.4399
 3152SOL    HW110897   5.676   6.892  10.806  2.8876  1.3508 -0.6595
 3152SOL    HW210898   5.713   6.887  10.952 -0.9541  0.3872  0.3883
 3153SOL     OW10899   0.815   3.584   2.726  0.6412 -0.7988  0.0537
 3153SOL    HW110900   0.869   3.505   2.724  0.8277 -0.6577 -0.4608
 3153SOL    HW210901   0.876   3.654   2.751  0.6762 -0.6542 -0.4393
 3154SOL     OW10902   1.992   3.366  11.118 -0.5037 -0.7831 -0.3403
 3154SOL    HW110903   1.981   3.450  11.073  0.1825  0.2895  1.3979
 3154SOL    HW210904   2.079   3.335  11.092 -0.8472 -1.0816 -1.1552
 3155SOL     OW10905   6.453   5.816   1.560 -0.5483 -0.1274  0.0311
 3155SOL    HW110906   6.410   5.737   1.529 -1.6998  0.5621 -0.1679
 3155SOL    HW210907   6.542   5.810   1.525 -0.2023 -1.9315  1.0590
 3156SOL     OW10908   7.459   2.097   2.320 -0.1818 -0.3206  0.3786
 3156SOL    HW110909   7.442   2.042   2.244 -0.7955  1.0764 -0.5404
 3156SOL    HW210910   7.537   2.147   2.296  0.2179 -0.5892  1.0945
 3157SOL     OW10911   7.727   4.833   4.856  0.2844  0.0182  0.0438
 3157SOL    HW110912   7.643   4.849   4.897 -0.1455 -0.0808 -0.7766
 3157SOL    HW210913   7.710   4.838   4.762  0.8977 -1.3976 -0.1708
 3158SOL     OW10914   6.391   2.027   9.392 -0.7485  0.2046 -0.1742
 3158SOL    HW110915   6.387   2.102   9.452  1.2110 -0.9710  1.5368
 3158SOL    HW210916   6.444   2.058   9.319  2.8826 -0.2811  1.9963
 3159SOL     OW10917   5.562   2.942   9.481 -0.0353 -0.1874 -0.3547
 3159SOL    HW110918   5.485   2.896   9.445  1.0167 -0.9274 -1.7759
 3159SOL    HW210919   5.636   2.885   9.459  1.0288  0.9577  0.1660
 3160SOL     OW10920   1.035   2.509  12.322 -0.0365 -0.4906  0.1770
 3160SOL    HW110921   1.060   2.433  12.270 -0.2499 -0.1266 -0.4689
 3160SOL    HW210922   1.090   2.580  12.288  0.6796 -0.4930  1.2544
 3161SOL     OW10923   3.903   1.095   2.683 -0.1193 -0.4291  0.2052
 3161SOL    HW110924   3.868   1.008   2.704  1.8241 -1.1643  0.6342
 3161SOL    HW210925   3.828   1.154   2.693 -1.5174 -2.0481 -0.1832
 3162SOL     OW10926   6.306   4.973   6.557 -0.2722  0.0090  0.0527
 3162SOL    HW110927   6.398   4.973   6.530 -0.2163  0.0282  0.2408
 3162SOL    HW210928   6.268   5.049   6.514 -0.3539 -0.3563 -0.5401
 3163SOL     OW10929   1.145   0.988   0.299  0.0195 -0.2266 -0.1052
 3163SOL    HW110930   1.136   1.058   0.364  0.8484 -0.8943  0.7461
 3163SOL    HW210931   1.080   0.923   0.325 -2.0485  0.9188 -1.9310
 3164SOL     OW10932   3.467   5.991   0.467 -0.0385 -0.5807  0.8235
 3164SOL    HW110933   3.490   6.084   0.469  1.9666 -1.0323  2.4617
 3164SOL    HW210934   3.481   5.965   0.376  0.1980  0.5352  0.5291
 3165SOL     OW10935   4.825   4.953   6.509 -0.0279  0.1018 -0.3485
 3165SOL    HW110936   4.812   4.864   6.478 -0.0866  0.2611 -0.7905
 3165SOL    HW210937   4.917   4.972   6.489  0.1204 -0.0267  0.1885
 3166SOL     OW10938   1.935   6.618   1.710 -0.1521 -0.0475  0.3195
 3166SOL    HW110939   1.853   6.666   1.701 -0.4835 -0.9025 -1.8434
 3166SOL    HW210940   1.911   6.527   1.694  0.9975 -0.5164  1.1280
 3167SOL     OW10941   5.609   0.453   9.744  0.3961  0.6301 -0.0801
 3167SOL    HW110942   5.649   0.524   9.794 -0.4565 -0.0383  1.6147
 3167SOL    HW210943   5.624   0.374   9.796 -3.1390  0.3602  0.8031
 3168SOL     OW10944   6.824   1.085   5.396  0.0699 -0.5807  0.1188
 3168SOL    HW110945   6.778   1.088   5.480 -0.2882  0.4417 -0.0932
 3168SOL    HW210946   6.807   1.171   5.357  2.6203  0.0706  0.2659
 3169SOL     OW10947   3.985   0.803   1.077 -0.1217  0.0406  0.5430
 3169SOL    HW110948   3.910   0.855   1.105  0.9605  1.1170  1.5155
 3169SOL    HW210949   4.050   0.867   1.048  0.2503 -0.8926 -0.8361
 3170SOL     OW10950   5.996   2.813   1.282  0.6987  0.8829  0.4141
 3170SOL    HW110951   6.021   2.807   1.374  0.8122  0.7037  0.3727
 3170SOL    HW210952   6.072   2.778   1.234  0.6125  0.9085  0.2562
 3171SOL     OW10953   3.197   7.663   5.814 -0.6687 -0.0576  0.3685
 3171SOL    HW110954   3.135   7.707   5.873  0.9396  0.2703  1.9116
 3171SOL    HW210955   3.175   7.570   5.822 -0.8154  0.0321  1.0928
 3172SOL     OW10956   2.145   1.659   5.341 -0.3030  0.1078 -0.1647
 3172SOL    HW110957   2.068   1.678   5.287  0.9888  1.6236 -1.5525
 3172SOL    HW210958   2.108   1.636   5.427 -2.3104  2.0643 -0.4040
 3173SOL     OW10959   4.424   5.738   7.566  0.3274  0.2345  0.0548
 3173SOL    HW110960   4.354   5.712   7.507  2.0427 -1.0751 -1.5570
 3173SOL    HW210961   4.464   5.815   7.525  1.2897 -0.4491 -0.3348
 3174SOL     OW10962   5.450   0.987   8.581 -0.4265 -0.2081 -0.2581
 3174SOL    HW110963   5.510   0.919   8.551 -0.6340  0.1147 -1.4568
 3174SOL    HW210964   5.500   1.038   8.645 -0.2378 -1.4069  0.5703
 3175SOL     OW10965   2.445   0.357   8.208 -0.3743 -0.0676  0.0420
 3175SOL    HW110966   2.514   0.293   8.189 -0.2812  0.3979 -1.2545
 3175SOL    HW210967   2.367   0.303   8.222  0.2212 -0.6035  1.5772
 3176SOL     OW10968   5.121   0.695   2.399  0.1472  0.0583  0.5854
 3176SOL    HW110969   5.069   0.619   2.423  1.7085 -1.5905 -0.9265
 3176SOL    HW210970   5.057   0.757   2.364 -1.0241 -1.1771  0.4329
 3177SOL     OW10971   6.108   6.092  12.193 -0.1741 -0.1069  0.4317
 3177SOL    HW110972   6.174   6.141  12.242 -0.2770  1.1552 -0.6268
 3177SOL    HW210973   6.158   6.046  12.126 -0.3074  0.5789 -0.1550
 3178SOL     OW10974   2.628   4.489   5.091  0.4976 -0.2684  0.2387
 3178SOL    HW110975   2.681   4.559   5.054 -0.4586  0.3653  0.0138
 3178SOL    HW210976   2.635   4.500   5.185  1.5966 -0.8503  0.2386
 3179SOL     OW10977   4.735   5.777   6.570  0.6157  0.2905  0.7079
 3179SOL    HW110978   4.667   5.755   6.633 -0.5849 -0.1056 -0.6478
 3179SOL    HW210979   4.722   5.714   6.498  2.1984  0.4352  0.2504
 3180SOL     OW10980   4.673   6.298   7.994 -0.2823 -0.3337 -0.1576
 3180SOL    HW110981   4.674   6.385   7.955 -0.0319  0.7048  2.0282
 3180SOL    HW210982   4.610   6.304   8.066 -0.0595 -1.8876  0.2194
 3181SOL     OW10983   4.354   0.901   5.349 -0.0427 -0.1637  0.4283
 3181SOL    HW110984   4.327   0.905   5.257 -2.9344 -0.7351  1.1585
 3181SOL    HW210985   4.318   0.981   5.388  0.3472 -0.3873  1.2625
 3182SOL     OW10986   1.302   0.330  10.036  0.6340  0.9422 -0.5683
 3182SOL    HW110987   1.327   0.268   9.967  2.2988  1.1048 -0.1408
 3182SOL    HW210988   1.244   0.279  10.093  0.0960  0.4930 -1.4812
 3183SOL     OW10989   2.435   6.844   8.563 -0.4019 -0.3511  0.1095
 3183SOL    HW110990   2.530   6.851   8.554 -0.4291 -0.6805 -0.4498
 3183SOL    HW210991   2.421   6.829   8.657  0.1174 -0.6134  0.1474
 3184SOL     OW10992   5.671   1.600   6.591  0.1307  0.2492 -0.1189
 3184SOL    HW110993   5.618   1.550   6.654  0.5858 -0.3393 -0.1926
 3184SOL    HW210994   5.688   1.538   6.520 -0.1409  0.8246 -0.6882
 3185SOL     OW10995   1.255   0.494   4.899 -0.7849  0.0104  0.0302
 3185SOL    HW110996   1.254   0.535   4.813 -1.3425 -0.4703 -0.2007
 3185SOL    HW210997   1.246   0.400   4.881  0.5482 -0.2388  0.5394
 3186SOL     OW10998   1.387   3.419   1.562  0.3504 -0.2827 -0.1218
 3186SOL    HW110999   1.388   3.482   1.489 -1.0604  1.4708  1.2551
 3186SOL    HW211000   1.454   3.452   1.622  0.7922 -1.1114 -0.1584
 3187SOL     OW11001   5.087   5.013   8.256  0.0513  0.2423 -0.1667
 3187SOL    HW111002   5.164   5.030   8.311 -1.0668  2.2188  0.9051
 3187SOL    HW211003   5.012   5.023   8.315 -1.2499  3.1928 -2.0739
 3188SOL     OW11004   0.740   3.565  11.436 -0.2975 -0.3149 -0.0705
 3188SOL    HW111005   0.748   3.657  11.460  2.3384 -0.4769 -0.0992
 3188SOL    HW211006   0.757   3.562  11.342 -1.0875 -0.7766 -0.2146
 3189SOL     OW11007   3.858   5.067  12.181  0.5056  0.7301  0.2019
 3189SOL    HW111008   3.946   5.031  12.170  0.5231  0.9142 -0.2656
 3189SOL    HW211009   3.853   5.089  12.274  0.4974 -0.4602  0.4944
 3190SOL     OW11010   5.686   5.806  12.034  0.2374  0.1521  0.9567
 3190SOL    HW111011   5.638   5.847  12.105 -0.9783  1.1594 -0.3742
 3190SOL    HW211012   5.646   5.720  12.023 -1.3385  0.9577 -0.1021
 3191SOL     OW11013   5.021   2.999   5.016  0.5827  0.2942 -0.4053
 3191SOL    HW111014   5.007   2.905   5.021 -1.1349  0.5746  1.8505
 3191SOL    HW211015   5.115   3.010   5.031  0.2486 -0.9810  3.9741
 3192SOL     OW11016   1.490   5.453   1.670  0.0368  0.2597  0.3243
 3192SOL    HW111017   1.449   5.401   1.739  0.7482 -0.4048  0.2570
 3192SOL    HW211018   1.417   5.477   1.612 -0.6989  1.5185  1.7145
 3193SOL     OW11019   6.315   3.692   9.012 -0.2461  0.5244  0.5366
 3193SOL    HW111020   6.238   3.636   9.023 -1.1188  1.6417  0.3461
 3193SOL    HW211021   6.279   3.781   9.009  1.2493  1.2947  2.9175
 3194SOL     OW11022   0.259   2.433   4.178 -0.1616  0.3947  0.3307
 3194SOL    HW111023   0.200   2.361   4.153  1.8623 -0.5605 -2.1681
 3194SOL    HW211024   0.325   2.391   4.234 -0.6885  1.0304  1.4616
 3195SOL     OW11025   1.115   3.768  11.069  0.6622  0.9116 -0.4302
 3195SOL    HW111026   1.044   3.764  11.005  0.8522 -0.2055 -0.5858
 3195SOL    HW211027   1.185   3.716  11.031  1.1640  1.0874  0.2257
 3196SOL     OW11028   4.730   3.937  11.395 -0.3142  0.3072 -0.1915
 3196SOL    HW111029   4.712   3.922  11.302 -0.6429 -0.6845  0.0227
 3196SOL    HW211030   4.822   3.965  11.397 -0.2373  0.1240 -0.7959
 3197SOL     OW11031   0.523   3.341  10.197  0.2671  0.0048 -0.0166
 3197SOL    HW111032   0.540   3.256  10.238  0.9341  0.5332  0.8197
 3197SOL    HW211033   0.534   3.404  10.267  1.0569  0.9065 -0.9311
 3198SOL     OW11034   3.054   0.170   8.035  0.7244 -0.3583 -0.6023
 3198SOL    HW111035   3.108   0.195   7.961 -1.2378  2.6089 -1.1870
 3198SOL    HW211036   2.971   0.141   7.996 -0.6445  2.0398  0.3386
 3199SOL     OW11037   6.569   2.600   4.522 -0.1725  0.3232 -0.5499
 3199SOL    HW111038   6.656   2.638   4.509 -0.5042  0.9098 -1.1874
 3199SOL    HW211039   6.512   2.676   4.535 -0.4323 -0.0988  0.9348
 3200SOL     OW11040   6.480   0.809   2.889 -0.1150 -0.7261  0.4555
 3200SOL    HW111041   6.515   0.829   2.976  0.2803  0.8383 -0.0416
 3200SOL    HW211042   6.386   0.824   2.897 -0.2565 -1.7267  0.9018
 3201SOL     OW11043   6.989   2.414   6.853  0.0555 -0.2912  0.2587
 3201SOL    HW111044   6.915   2.417   6.793 -0.8216 -0.3888  1.3109
 3201SOL    HW211045   6.954   2.443   6.937  1.5447  1.0635  0.4643
 3202SOL     OW11046   2.368   1.592   2.021  0.0223 -0.0487  0.2847
 3202SOL    HW111047   2.436   1.590   1.953  0.5132 -0.3019  0.7789
 3202SOL    HW211048   2.416   1.608   2.102 -0.6029  0.6412  0.5312
 3203SOL     OW11049   7.612   6.225   4.287  0.6725  0.4591  0.2184
 3203SOL    HW111050   7.582   6.296   4.231 -1.8735 -0.6765 -0.0099
 3203SOL    HW211051   7.690   6.191   4.243 -1.4475 -0.6641 -3.0306
 3204SOL     OW11052   6.680   2.286   5.651  0.3594  0.2333  0.5726
 3204SOL    HW111053   6.668   2.295   5.746  0.7185  2.8054  0.4441
 3204SOL    HW211054   6.775   2.286   5.639  0.3131  0.0021  0.1926
 3205SOL     OW11055   1.321   2.399  10.285  0.7488 -0.2716  0.2812
 3205SOL    HW111056   1.245   2.391  10.228  0.2360 -1.9889  1.1178
 3205SOL    HW211057   1.332   2.493  10.300 -1.7507 -0.0174  0.8607
 3206SOL     OW11058   1.952   5.324   7.800  0.2611 -0.9027 -0.3441
 3206SOL    HW111059   1.955   5.318   7.705 -0.6190  0.0183 -0.4523
 3206SOL    HW211060   1.940   5.234   7.830 -0.8386 -1.0579 -1.1949
 3207SOL     OW11061   7.803   3.809   4.800 -0.2129 -0.4417  0.6319
 3207SOL    HW111062   7.885   3.845   4.765 -0.8306  0.4869  0.1240
 3207SOL    HW211063   7.777   3.744   4.735 -0.1071 -0.4241  0.5697
 3208SOL     OW11064   1.357   4.071   8.272  0.2519 -0.4775 -0.0863
 3208SOL    HW111065   1.328   4.162   8.268  0.0041 -0.5992 -2.0402
 3208SOL    HW211066   1.441   4.075   8.319 -0.0986  0.6492  0.4751
 3209SOL     OW11067   5.043   5.045   2.944 -0.4998  0.4277 -0.6834
 3209SOL    HW111068   5.013   4.982   3.011  3.0650 -0.3606  0.3572
 3209SOL    HW211069   5.041   5.129   2.989 -1.5112  0.4744 -0.7904
 3210SOL     OW11070   4.398   5.751   0.586  0.0725 -0.0664  0.3375
 3210SOL    HW111071   4.413   5.721   0.676  0.4530  2.5625  1.2451
 3210SOL    HW211072   4.332   5.820   0.595  0.6796  0.7642 -1.3200
 3211SOL     OW11073   4.766   2.385   2.495  0.4983  0.7875  0.0296
 3211SOL    HW111074   4.773   2.306   2.548  0.8588  0.6194 -0.2673
 3211SOL    HW211075   4.706   2.361   2.424  1.6190  0.3647 -0.7996
 3212SOL     OW11076   0.315   4.990   2.906 -0.0722  0.6216 -0.4302
 3212SOL    HW111077   0.393   4.948   2.869  0.3530  1.4411 -0.4876
 3212SOL    HW211078   0.272   5.030   2.831  0.5882  1.9629 -0.1160
 3213SOL     OW11079   7.306   1.901   7.496  0.1941 -0.5487 -0.0077
 3213SOL    HW111080   7.392   1.880   7.533  0.5634  0.1802 -0.4126
 3213SOL    HW211081   7.312   1.871   7.405 -0.0381 -0.6414  0.0081
 3214SOL     OW11082   1.687   6.542   5.200 -0.0877 -0.2339  0.3320
 3214SOL    HW111083   1.735   6.594   5.136 -0.1005 -0.5643  0.0505
 3214SOL    HW211084   1.722   6.569   5.284  1.1595 -1.0382  0.0955
 3215SOL     OW11085   0.595   3.404   2.983 -0.1239 -0.1263 -0.3814
 3215SOL    HW111086   0.687   3.404   3.009  0.2273 -0.8789 -1.5537
 3215SOL    HW211087   0.573   3.496   2.975  0.9746  0.0635 -1.5502
 3216SOL     OW11088   2.864   5.349   3.875  0.2363 -0.0610 -0.0288
 3216SOL    HW111089   2.782   5.310   3.905  0.3756  1.6575  2.8715
 3216SOL    HW211090   2.926   5.276   3.874 -1.0485 -1.2043 -1.4322
 3217SOL     OW11091   3.328   4.194   2.692 -0.3414 -0.4432  0.3720
 3217SOL    HW111092   3.415   4.217   2.660 -0.4062  0.9756  1.1736
 3217SOL    HW211093   3.318   4.241   2.774 -1.9562 -0.4054  0.1924
 3218SOL     OW11094   3.406   4.465   0.449 -0.5227 -0.4075 -0.5019
 3218SOL    HW111095   3.434   4.415   0.526 -0.0544 -0.9338 -1.0065
 3218SOL    HW211096   3.311   4.466   0.455 -0.4740  1.2281  1.1311
 3219SOL     OW11097   0.446   6.031   5.859  0.2010 -0.3258 -0.1384
 3219SOL    HW111098   0.393   5.960   5.824 -0.1842 -0.3512  0.4758
 3219SOL    HW211099   0.387   6.080   5.917  0.7507 -0.1569  0.3025
 3220SOL     OW11100   5.753   7.460   8.311  0.3051 -0.5542  0.2028
 3220SOL    HW111101   5.688   7.524   8.340  1.4516  0.1994  1.2642
 3220SOL    HW211102   5.721   7.428   8.227 -0.5167  1.1272 -0.1679
 3221SOL     OW11103   3.156   5.927   3.426 -0.2153 -0.1537 -0.2303
 3221SOL    HW111104   3.172   5.996   3.361  0.7961  1.1010  1.2774
 3221SOL    HW211105   3.223   5.941   3.493 -1.7987 -0.7660  1.5737
 3222SOL     OW11106   0.079   6.689  10.692 -0.2022  0.2355  0.4059
 3222SOL    HW111107   0.143   6.747  10.650  0.6895 -0.2128  1.1255
 3222SOL    HW211108   0.052   6.735  10.771 -1.0901  0.6050 -0.0970
 3223SOL     OW11109   3.416   1.688   8.253 -0.4054 -0.1565 -0.3607
 3223SOL    HW111110   3.430   1.768   8.201 -1.1564  0.9518  1.0599
 3223SOL    HW211111   3.503   1.665   8.285 -0.0419 -0.4536 -1.5339
 3224SOL     OW11112   5.714   5.765  10.787 -0.8991  0.5273  0.6087
 3224SOL    HW111113   5.691   5.807  10.870  2.0885  1.6057  1.0150
 3224SOL    HW211114   5.733   5.837  10.727 -1.3213 -0.2526 -0.4894
 3225SOL     OW11115   0.914   0.354   5.556 -0.4368 -0.2338 -0.2747
 3225SOL    HW111116   0.903   0.296   5.480  1.0957 -0.0548 -0.6670
 3225SOL    HW211117   0.971   0.305   5.616 -3.6502 -1.4850  2.0275
 3226SOL     OW11118   1.350   4.782   0.997  0.2646  0.9028  0.0176
 3226SOL    HW111119   1.420   4.755   1.057  0.7991  1.2073 -0.4529
 3226SOL    HW211120   1.309   4.858   1.040 -0.7008 -0.1193  0.9470
 3227SOL     OW11121   6.771   3.231   4.310  0.7587 -0.1433  0.3359
 3227SOL    HW111122   6.863   3.260   4.309  1.3787 -1.9447 -0.7561
 3227SOL    HW211123   6.764   3.174   4.234 -1.6096  0.8200 -0.2416
 3228SOL     OW11124   7.659   2.086   7.774  0.0884  0.1776 -0.0511
 3228SOL    HW111125   7.691   2.137   7.700  1.8795 -1.7957 -0.7288
 3228SOL    HW211126   7.724   2.099   7.843 -0.4682  0.3425  0.4543
 3229SOL     OW11127   7.870   4.088   1.333  0.0155  0.5083  0.1232
 3229SOL    HW111128   7.858   4.135   1.416  1.2873  0.3031  0.4427
 3229SOL    HW211129   7.848   3.997   1.354  1.2315  0.2806  0.5016
 3230SOL     OW11130   2.427   7.356   1.024  0.2934  1.2119  0.2422
 3230SOL    HW111131   2.506   7.374   0.972  0.4238 -2.2903 -1.0484
 3230SOL    HW211132   2.355   7.380   0.966  0.4158  1.5470  0.2252
 3231SOL     OW11133   2.981   4.700   2.570 -0.2343 -0.5758  0.8255
 3231SOL    HW111134   3.038   4.697   2.493  1.2855 -0.5312  1.8875
 3231SOL    HW211135   2.919   4.770   2.551  0.7080  0.0739  0.0172
 3232SOL     OW11136   1.543   6.993   0.602  0.3598  0.3615  0.1103
 3232SOL    HW111137   1.577   6.912   0.639 -1.1555  0.4768  1.8685
 3232SOL    HW211138   1.570   7.061   0.663  0.0616  0.9490 -0.3998
 3233SOL     OW11139   3.338   0.680   0.386 -0.1215  0.0516  0.1526
 3233SOL    HW111140   3.262   0.724   0.423  0.4605  0.7594  0.5529
 3233SOL    HW211141   3.371   0.625   0.457 -1.0250 -1.2985 -0.4438
 3234SOL     OW11142   3.518   1.344   7.478 -0.2593 -0.3952 -0.5778
 3234SOL    HW111143   3.613   1.336   7.471  0.0076  0.7755  1.1282
 3234SOL    HW211144   3.491   1.389   7.398  0.7977  0.4344 -0.4864
 3235SOL     OW11145   1.454   1.821   4.604  0.2540  0.4204 -0.1187
 3235SOL    HW111146   1.387   1.843   4.669 -1.1797 -0.0788 -1.3428
 3235SOL    HW211147   1.441   1.885   4.534  0.5328 -0.1517 -0.7078
 3236SOL     OW11148   3.460   1.496  11.276  0.4354  0.7043  0.0283
 3236SOL    HW111149   3.451   1.590  11.260 -1.5975  0.5980  0.2499
 3236SOL    HW211150   3.466   1.458  11.189 -0.5890  0.9201 -0.1525
 3237SOL     OW11151   6.778   5.976   1.701  0.1859  0.0662  0.4578
 3237SOL    HW111152   6.852   5.916   1.694  0.6045  0.5571  0.6318
 3237SOL    HW211153   6.737   5.953   1.785 -0.7195 -1.1604 -0.2910
 3238SOL     OW11154   1.625   2.692   0.884  0.2624  0.3581  0.5203
 3238SOL    HW111155   1.683   2.625   0.920 -0.1609 -1.0821 -1.3081
 3238SOL    HW211156   1.683   2.767   0.867  0.6117  0.7770  3.2088
 3239SOL     OW11157   5.734   2.145  10.877 -0.5814 -0.3445  0.3293
 3239SOL    HW111158   5.749   2.117  10.786 -0.7149  0.2600  0.1177
 3239SOL    HW211159   5.775   2.231  10.882 -1.2921 -0.0162  0.6081
 3240SOL     OW11160   2.751   7.908   0.059 -0.1375 -0.2179 -0.4397
 3240SOL    HW111161   2.726   7.825   0.099 -0.7913  0.3499  0.3655
 3240SOL    HW211162   2.672   7.961   0.063  0.4817  0.7094 -0.2653
 3241SOL     OW11163   3.265   2.583   9.651  0.0199  0.0872  0.4088
 3241SOL    HW111164   3.205   2.511   9.670  0.5228 -0.3160  0.5007
 3241SOL    HW211165   3.225   2.629   9.577  0.0025 -0.6567 -0.0507
 3242SOL     OW11166   1.985   0.955   1.424  0.0165  0.5739 -0.2785
 3242SOL    HW111167   2.076   0.956   1.397  0.9278  0.7463  2.5011
 3242SOL    HW211168   1.984   0.907   1.507 -2.4291  0.5318 -0.2372
 3243SOL     OW11169   5.242   1.969   3.423 -0.1817  0.1606  0.2709
 3243SOL    HW111170   5.326   1.952   3.380 -0.3388  1.2217 -0.4851
 3243SOL    HW211171   5.231   1.895   3.483  1.6819  0.3985  0.9878
 3244SOL     OW11172   3.953   2.755   0.005  0.0782  0.3272  0.2384
 3244SOL    HW111173   4.030   2.764  -0.051 -1.9398 -1.2067 -3.0679
 3244SOL    HW211174   3.967   2.672   0.051 -0.0805 -0.6173 -1.3328
 3245SOL     OW11175   7.844   4.337   9.112  0.5610  0.2509 -0.3710
 3245SOL    HW111176   7.799   4.421   9.101  1.9568  0.8364 -2.2109
 3245SOL    HW211177   7.793   4.275   9.060 -0.9727 -0.3276  1.6797
 3246SOL     OW11178   5.986   2.845   6.212 -0.2388  0.4638 -0.4098
 3246SOL    HW111179   5.975   2.939   6.228 -1.6150  0.3049 -0.2854
 3246SOL    HW211180   5.900   2.807   6.233  0.7844 -1.0686  1.3421
 3247SOL     OW11181   2.054   4.544   7.309 -0.7226 -0.2879 -0.4885
 3247SOL    HW111182   2.002   4.583   7.379  2.0582  0.0663  1.5702
 3247SOL    HW211183   2.040   4.450   7.318  1.4904 -0.4848  2.4012
 3248SOL     OW11184   5.017   7.480   9.870 -0.4990  0.2180  0.2161
 3248SOL    HW111185   5.060   7.561   9.897  1.9683 -0.9435  0.0471
 3248SOL    HW211186   5.020   7.482   9.774 -1.6746  0.5190  0.1705
 3249SOL     OW11187   6.331   7.015   1.532  0.1199 -0.2356  0.4957
 3249SOL    HW111188   6.358   7.105   1.514 -3.0310  0.6664 -0.4243
 3249SOL    HW211189   6.309   7.016   1.626  3.3162 -1.1104  1.3791
 3250SOL     OW11190   7.397   6.786   2.348  0.2948 -0.1874 -0.4469
 3250SOL    HW111191   7.429   6.697   2.366  1.0197  0.2181  0.3495
 3250SOL    HW211192   7.368   6.819   2.433 -0.8048  0.0356 -0.8910
 3251SOL     OW11193   7.812   7.554   3.412 -0.3339 -0.0386 -0.3381
 3251SOL    HW111194   7.861   7.473   3.405  1.1911  0.9598 -2.2841
 3251SOL    HW211195   7.812   7.590   3.323 -1.7857  1.6124  0.2750
 3252SOL     OW11196   1.430   3.991   7.079  0.3852  0.9043 -0.0238
 3252SOL    HW111197   1.368   3.925   7.109  1.0189  0.0353 -0.5837
 3252SOL    HW211198   1.477   4.017   7.159  0.1966  0.6109  0.1872
 3253SOL     OW11199   0.065   5.421   8.683 -0.1365  0.2572 -0.1362
 3253SOL    HW111200   0.105   5.507   8.670  1.9324 -0.7628 -0.9073
 3253SOL    HW211201  -0.026   5.440   8.704  0.5748  2.6782  1.0533
 3254SOL     OW11202   7.772   0.033  10.815 -0.0288 -0.1456  0.7187
 3254SOL    HW111203   7.751   0.058  10.905 -1.6377  0.4982  0.2020
 3254SOL    HW211204   7.787   0.116  10.770  1.4881 -0.4955  0.5178
 3255SOL     OW11205   6.599   2.167   4.911 -0.2084 -0.8549 -0.0101
 3255SOL    HW111206   6.554   2.138   4.831 -0.7664 -0.0063 -0.0169
 3255SOL    HW211207   6.539   2.230   4.950  0.1786 -1.0688  0.9556
 3256SOL     OW11208   7.145   5.458   5.033  0.4086  0.0049 -0.1491
 3256SOL    HW111209   7.153   5.438   5.126 -0.1605 -1.2099 -0.3495
 3256SOL    HW211210   7.214   5.407   4.991 -2.0174 -2.9871 -0.8325
 3257SOL     OW11211   5.721   3.773   4.493 -0.0291  0.0017 -0.1278
 3257SOL    HW111212   5.643   3.822   4.518  0.6177  1.0805 -0.1619
 3257SOL    HW211213   5.790   3.807   4.549  0.3155 -1.3630  0.3205
 3258SOL     OW11214   4.047   0.023   5.439  0.0690 -0.3968  0.8495
 3258SOL    HW111215   4.029   0.079   5.364 -0.7964  0.3738  1.5963
 3258SOL    HW211216   4.068   0.084   5.510 -0.4872 -1.0223  1.5760
 3259SOL     OW11217   7.905   1.333   8.036  0.1052  0.0307  1.0926
 3259SOL    HW111218   7.982   1.332   8.093  0.6280  0.5178  0.4089
 3259SOL    HW211219   7.926   1.272   7.965  0.8969  1.9228 -0.3873
 3260SOL     OW11220   1.043   6.740   4.407  0.8654  0.3107  0.2886
 3260SOL    HW111221   0.960   6.767   4.367  1.0436 -0.1473 -0.4040
 3260SOL    HW211222   1.081   6.821   4.441 -0.0365  0.4737  0.9440
 3261SOL     OW11223   0.751   5.040   0.903 -0.0326 -0.1028 -0.2177
 3261SOL    HW111224   0.774   5.071   0.816 -0.3271  1.8642  0.3590
 3261SOL    HW211225   0.657   5.021   0.897 -0.2826  1.0159 -0.0885
 3262SOL     OW11226   3.743   0.352   2.277  0.2150  0.1869 -0.4797
 3262SOL    HW111227   3.681   0.404   2.225  0.5915  1.0713 -0.0622
 3262SOL    HW211228   3.800   0.417   2.318  1.1301 -0.6019 -0.4876
 3263SOL     OW11229   4.697   1.110   3.051 -0.4476 -0.4180  0.5242
 3263SOL    HW111230   4.701   1.017   3.074  1.1940 -0.9844 -1.7021
 3263SOL    HW211231   4.623   1.116   2.990 -0.0645 -0.4104  0.0625
 3264SOL     OW11232   1.311   0.773   2.721 -0.0686  0.6344  0.7664
 3264SOL    HW111233   1.385   0.719   2.696 -2.1521 -1.5432 -1.1574
 3264SOL    HW211234   1.325   0.856   2.674  0.7953  0.0141 -0.1145
 3265SOL     OW11235   1.323   2.674  10.369 -0.1753  0.4577  0.2082
 3265SOL    HW111236   1.228   2.684  10.376 -0.2903 -0.3599 -0.1239
 3265SOL    HW211237   1.358   2.714  10.448 -0.8147  0.4835  0.4772
 3266SOL     OW11238   0.206   5.286   6.067 -0.5728 -0.0960  0.0830
 3266SOL    HW111239   0.165   5.360   6.111 -2.8868 -0.7449 -0.8128
 3266SOL    HW211240   0.298   5.291   6.091 -1.2451  1.1365  2.6980
 3267SOL     OW11241   5.831   3.234  10.377 -0.2860  0.2045  0.0102
 3267SOL    HW111242   5.881   3.173  10.323 -0.0766  1.5422 -1.3614
 3267SOL    HW211243   5.896   3.295  10.412 -0.7601  1.1422 -0.6886
 3268SOL     OW11244   1.569   4.092   1.334  0.3257 -0.2684  0.0713
 3268SOL    HW111245   1.588   4.030   1.404 -0.2895 -1.0575 -0.4426
 3268SOL    HW211246   1.477   4.117   1.348  0.4180  0.1368 -0.0250
 3269SOL     OW11247   7.600   7.422   1.948  0.0035 -0.5072  0.0350
 3269SOL    HW111248   7.661   7.488   1.915 -0.1251 -0.9451 -1.1258
 3269SOL    HW211249   7.657   7.348   1.971  0.0035 -0.5635 -0.1438
 3270SOL     OW11250   2.739   6.100   1.608  0.6151  0.1383 -0.0479
 3270SOL    HW111251   2.720   6.061   1.694  3.0264 -0.2366  0.4085
 3270SOL    HW211252   2.691   6.045   1.546  2.2610 -2.4140  0.7466
 3271SOL     OW11253   1.821   4.399   1.331 -0.5442  0.3973 -0.0844
 3271SOL    HW111254   1.862   4.332   1.278 -0.0947 -0.2240  1.0216
 3271SOL    HW211255   1.826   4.479   1.278 -2.2286 -0.6485 -1.9748
 3272SOL     OW11256   0.492   2.281   4.345 -0.6489 -0.0365 -0.3974
 3272SOL    HW111257   0.443   2.199   4.353  0.2544 -0.5316  0.1918
 3272SOL    HW211258   0.543   2.287   4.425 -1.7278  1.8121  0.2227
 3273SOL     OW11259   2.042   6.143   0.770  0.0722 -0.0160  0.4697
 3273SOL    HW111260   1.979   6.179   0.707  0.3932  0.1108  0.2199
 3273SOL    HW211261   2.127   6.168   0.735  0.2443  0.3771  1.1526
 3274SOL     OW11262   3.977   5.406   7.178 -0.0085  0.2992 -0.2333
 3274SOL    HW111263   4.070   5.405   7.155 -0.0730  0.8912 -0.5392
 3274SOL    HW211264   3.960   5.497   7.202 -1.1592  0.8287 -2.8268
 3275SOL     OW11265   3.923   0.343   3.385 -0.6143 -0.1869 -0.0242
 3275SOL    HW111266   3.911   0.287   3.462  1.0948  1.1326  1.2723
 3275SOL    HW211267   3.860   0.309   3.321 -3.1013 -0.5098  2.3800
 3276SOL     OW11268   7.471   6.073   2.086  0.1711  0.2703  0.1674
 3276SOL    HW111269   7.415   6.041   2.015 -1.3252  0.7602  1.0701
 3276SOL    HW211270   7.490   6.164   2.063 -1.3556  0.8291  0.9407
 3277SOL     OW11271   3.356   6.407   3.360  0.7214  0.0383 -0.1430
 3277SOL    HW111272   3.388   6.426   3.272  2.6278 -0.6624  0.3409
 3277SOL    HW211273   3.352   6.311   3.364 -1.8352  0.0824 -0.2575
 3278SOL     OW11274   0.881   1.501   4.074  0.3569 -0.5132  0.0423
 3278SOL    HW111275   0.840   1.568   4.019 -1.2128 -1.7475 -0.3793
 3278SOL    HW211276   0.975   1.512   4.060  0.2090  2.0054  0.5103
 3279SOL     OW11277   7.344   7.789   4.449  0.1259  0.0301 -0.3220
 3279SOL    HW111278   7.386   7.845   4.384  2.8165  0.0786  1.3422
 3279SOL    HW211279   7.309   7.850   4.514  0.8014 -0.1169  0.1877
 3280SOL     OW11280   1.621   7.915  11.407 -0.1410 -0.3653 -0.2059
 3280SOL    HW111281   1.632   7.828  11.446 -3.2382 -1.3755 -1.3056
 3280SOL    HW211282   1.545   7.952  11.453 -0.2800  0.7908 -1.3267
 3281SOL     OW11283   0.260   3.447   5.883 -0.3307  0.3253  0.7144
 3281SOL    HW111284   0.343   3.485   5.854  0.1812 -0.0431  1.6577
 3281SOL    HW211285   0.269   3.353   5.868  0.4747 -0.0635  3.1725
 3282SOL     OW11286   3.642   0.548   9.603  0.1921  0.1269 -0.8855
 3282SOL    HW111287   3.607   0.630   9.566 -0.3142  0.2582 -0.1497
 3282SOL    HW211288   3.736   0.563   9.611  0.3920 -0.0958 -2.5772
 3283SOL     OW11289   7.849   5.524   0.862  0.0842  0.1643  0.3343
 3283SOL    HW111290   7.797   5.601   0.883 -0.6642 -0.6058  1.4353
 3283SOL    HW211291   7.918   5.556   0.804 -0.6284  1.5167  0.2048
 3284SOL     OW11292   0.892   4.755  10.668  0.4144  0.0004  0.4207
 3284SOL    HW111293   0.910   4.718  10.582  0.8944  1.0039  0.0640
 3284SOL    HW211294   0.804   4.791  10.660  0.5820  0.3789  0.2345
 3285SOL     OW11295   5.137   4.744   5.564 -0.0459  0.0268  0.3644
 3285SOL    HW111296   5.081   4.711   5.495  0.3842  0.7047 -0.3241
 3285SOL    HW211297   5.226   4.734   5.530  0.0740  2.8202 -0.3367
 3286SOL     OW11298   5.891   4.552   8.244  0.1532 -0.1118  0.1538
 3286SOL    HW111299   5.955   4.480   8.251  0.0209 -0.3440 -0.8843
 3286SOL    HW211300   5.941   4.625   8.208  0.0078 -0.0652  0.0463
 3287SOL     OW11301   5.933   1.693   5.058 -0.0654  0.1102  0.1987
 3287SOL    HW111302   5.937   1.773   5.005 -0.7140  0.5819  0.8359
 3287SOL    HW211303   6.012   1.645   5.034 -0.5616  0.0776 -1.5214
 3288SOL     OW11304   7.311   2.598   3.448 -0.0723  0.2587 -0.3070
 3288SOL    HW111305   7.313   2.669   3.512  1.2364 -1.7200  2.0276
 3288SOL    HW211306   7.385   2.542   3.472 -0.4448 -1.3977 -2.6496
 3289SOL     OW11307   1.234   1.232  10.248  0.0355  0.2222  0.1928
 3289SOL    HW111308   1.222   1.254  10.341  1.8311  0.5858  0.3747
 3289SOL    HW211309   1.318   1.187  10.245 -0.7667 -1.2755 -1.0645
 3290SOL     OW11310   1.411   6.242   6.076  0.0500  0.4046  0.0391
 3290SOL    HW111311   1.486   6.184   6.086 -0.5551 -0.5257 -0.6293
 3290SOL    HW211312   1.412   6.296   6.155  0.4871 -0.6735  0.8044
 3291SOL     OW11313   7.778   3.246   1.702 -0.4116 -0.8539 -0.4204
 3291SOL    HW111314   7.694   3.290   1.711 -0.3159 -0.9718  1.4267
 3291SOL    HW211315   7.837   3.293   1.762  0.5167 -1.5237 -0.7781
 3292SOL     OW11316   1.627   3.951   7.745  0.2507 -0.6996 -0.4407
 3292SOL    HW111317   1.650   3.874   7.797  2.2389 -0.5219 -0.9901
 3292SOL    HW211318   1.613   4.020   7.809  3.1851 -0.3484 -0.0275
 3293SOL     OW11319   0.511   5.312   0.869 -0.0105  0.2447 -0.2263
 3293SOL    HW111320   0.417   5.329   0.874  0.1039  0.9712 -0.4136
 3293SOL    HW211321   0.539   5.303   0.960 -0.1876  0.4743 -0.1478
 3294SOL     OW11322   2.320   1.621   5.077  0.1308  0.3386 -0.4693
 3294SOL    HW111323   2.256   1.690   5.063  0.5794  0.5234 -1.7420
 3294SOL    HW211324   2.344   1.628   5.169 -1.4430  0.4505 -0.0549
 3295SOL     OW11325   4.104   6.974   4.664  0.6101 -0.0960  0.2274
 3295SOL    HW111326   4.088   6.984   4.758 -1.4606 -2.4849  0.2394
 3295SOL    HW211327   4.186   6.925   4.659  0.4957 -0.3658  0.8409
 3296SOL     OW11328   0.095   0.403   7.375 -0.1853  0.2118 -0.6212
 3296SOL    HW111329   0.123   0.317   7.344 -0.6155  0.0067 -0.4472
 3296SOL    HW211330   0.150   0.419   7.452 -1.5433 -0.8598  0.6304
 3297SOL     OW11331   2.895   0.156   7.557 -0.8668  0.1057 -0.0591
 3297SOL    HW111332   2.925   0.065   7.550 -4.3368 -1.2331  0.5129
 3297SOL    HW211333   2.911   0.194   7.471 -0.1025 -1.3022 -0.5623
 3298SOL     OW11334   2.376   3.413   6.015  0.6541  0.2527 -0.9152
 3298SOL    HW111335   2.410   3.379   6.098  0.7538 -1.0731 -1.4754
 3298SOL    HW211336   2.449   3.461   5.977  0.6826  0.6701 -0.3380
 3299SOL     OW11337   5.767   6.485   4.246  0.4098  0.3962  0.8419
 3299SOL    HW111338   5.725   6.517   4.326  0.1900  1.0327  0.4820
 3299SOL    HW211339   5.799   6.564   4.203  2.6546 -0.1047  1.4522
 3300SOL     OW11340   6.283   7.594   6.524  0.0406  0.2313 -0.6291
 3300SOL    HW111341   6.354   7.530   6.534  0.4737  0.8343  0.2307
 3300SOL    HW211342   6.255   7.613   6.613  0.6640  2.0543 -0.7965
 3301SOL     OW11343   2.332   1.093  11.060 -0.1135 -0.0048  0.5124
 3301SOL    HW111344   2.279   1.137  10.993  2.3487  2.7687  0.1682
 3301SOL    HW211345   2.332   1.153  11.134  2.5974  0.2276  0.4247
 3302SOL     OW11346   3.027   7.542   4.548 -0.6501  0.3549 -0.5072
 3302SOL    HW111347   3.050   7.518   4.459 -1.6333 -0.0581 -0.6597
 3302SOL    HW211348   2.953   7.602   4.538 -0.4928  0.6450  0.0157
 3303SOL     OW11349   6.731   5.822   4.549  0.0314  0.2882  0.2946
 3303SOL    HW111350   6.819   5.856   4.562  0.5743 -0.6256 -0.8606
 3303SOL    HW211351   6.719   5.819   4.454 -0.7069 -0.8908  0.3969
 3304SOL     OW11352   7.222   0.502   5.044 -0.1783 -0.2609  0.0099
 3304SOL    HW111353   7.262   0.531   5.125  1.5437  0.6799 -1.1147
 3304SOL    HW211354   7.295   0.484   4.985 -1.3094  1.6409 -2.1781
 3305SOL     OW11355   7.361   1.397   9.342 -0.0649 -0.1592 -0.3115
 3305SOL    HW111356   7.368   1.305   9.367  2.0436 -0.1204 -0.6167
 3305SOL    HW211357   7.447   1.420   9.309 -0.5799  1.9178 -0.3544
 3306SOL     OW11358   5.245   4.199   2.859  0.0607 -0.2784  0.3195
 3306SOL    HW111359   5.178   4.209   2.791  1.0514 -2.4632 -1.0839
 3306SOL    HW211360   5.299   4.277   2.850  0.2806 -0.5979 -1.5897
 3307SOL     OW11361   1.470   4.408   8.569 -0.2185  0.1861  0.0168
 3307SOL    HW111362   1.513   4.473   8.513 -0.4495  0.8424  0.5895
 3307SOL    HW211363   1.540   4.372   8.623 -0.2609  0.7132  0.4252
 3308SOL     OW11364   0.240   2.687  11.644  0.2368  0.3476 -0.0649
 3308SOL    HW111365   0.225   2.674  11.550  0.3267  0.9001 -0.1599
 3308SOL    HW211366   0.155   2.713  11.678  0.7386  2.6723 -0.4591
 3309SOL     OW11367   7.506   4.640   5.440 -0.1860  0.2179 -0.0278
 3309SOL    HW111368   7.489   4.587   5.518  1.2538 -0.5361 -0.1868
 3309SOL    HW211369   7.492   4.579   5.367  0.1006  0.4493 -0.2767
 3310SOL     OW11370   3.074   5.736   5.567  0.3358  0.3373  0.4619
 3310SOL    HW111371   3.037   5.757   5.481  0.8014  0.9039  0.3849
 3310SOL    HW211372   3.002   5.697   5.616 -0.1867  0.8282  0.1053
 3311SOL     OW11373   5.843   7.232   8.105 -0.0997 -0.7452 -0.3055
 3311SOL    HW111374   5.916   7.195   8.055  0.0748 -0.5575 -0.1886
 3311SOL    HW211375   5.854   7.195   8.193  0.2025 -0.2446 -0.1296
 3312SOL     OW11376   6.070   4.480   6.246  0.3778  0.2672 -0.3480
 3312SOL    HW111377   6.020   4.401   6.225  1.3055 -0.6818  0.8658
 3312SOL    HW211378   6.161   4.450   6.250  0.5745  0.9905  1.9229
 3313SOL     OW11379   2.928   5.526  10.344  0.3895  0.0341  0.3340
 3313SOL    HW111380   2.927   5.469  10.422  0.8191 -0.1831  0.1813
 3313SOL    HW211381   2.983   5.600  10.369  0.8647 -0.2365  0.0979
 3314SOL     OW11382   2.404   4.991  10.614 -0.7255 -0.1043 -0.5699
 3314SOL    HW111383   2.366   4.958  10.533 -1.9201 -0.5631  0.1545
 3314SOL    HW211384   2.329   5.015  10.668  0.0639  0.6802  0.2102
 3315SOL     OW11385   4.427   2.719   9.782  0.2169  0.2591 -0.3480
 3315SOL    HW111386   4.383   2.804   9.782  0.0731  0.1969 -1.2911
 3315SOL    HW211387   4.368   2.661   9.733  0.5107 -0.2843 -0.0732
 3316SOL     OW11388   1.503   7.630   7.823 -0.5060 -0.2673  0.2591
 3316SOL    HW111389   1.530   7.707   7.874 -0.5637 -1.6047  2.4198
 3316SOL    HW211390   1.569   7.623   7.754  0.2089  0.9883  0.7748
 3317SOL     OW11391   0.678   7.284  11.622  0.0627  0.6621 -0.0218
 3317SOL    HW111392   0.693   7.266  11.715  1.4334  0.9851 -0.1655
 3317SOL    HW211393   0.706   7.204  11.577  0.9394  1.1008 -0.2677
 3318SOL     OW11394   6.848   1.390   6.350 -0.0050  0.5104 -0.1739
 3318SOL    HW111395   6.907   1.341   6.407 -0.8988 -2.1461 -1.3404
 3318SOL    HW211396   6.805   1.452   6.408  0.4801 -0.7807  1.6729
 3319SOL     OW11397   2.971   3.921   1.651 -0.3827  0.0282  0.2571
 3319SOL    HW111398   2.945   3.990   1.589  0.4250 -0.0263 -0.1468
 3319SOL    HW211399   3.066   3.921   1.649 -0.3628 -0.5254  0.9054
 3320SOL     OW11400   1.579   0.629   9.532  0.1981 -0.7717 -0.0043
 3320SOL    HW111401   1.487   0.632   9.506  0.5054 -0.5280 -1.1200
 3320SOL    HW211402   1.626   0.611   9.451  1.3109  1.1932  0.1365
 3321SOL     OW11403   6.869   4.706   0.100 -0.0979 -0.3492 -0.5547
 3321SOL    HW111404   6.864   4.768   0.172 -1.0912 -1.4200  0.3345
 3321SOL    HW211405   6.945   4.735   0.049 -1.1881  2.2720 -0.8431
 3322SOL     OW11406   5.157   7.232   4.519  0.1821  0.3939 -0.1050
 3322SOL    HW111407   5.080   7.277   4.552 -0.0351 -0.0636  0.0225
 3322SOL    HW211408   5.230   7.290   4.542 -0.0744  0.6013  0.2027
 3323SOL     OW11409   3.865   3.168   2.257 -0.2461 -0.2355  0.5233
 3323SOL    HW111410   3.785   3.199   2.215  0.0026 -1.4087 -0.8998
 3323SOL    HW211411   3.845   3.079   2.286  1.3958 -1.8636 -2.7680
 3324SOL     OW11412   7.809   5.633   3.215  0.1701 -0.7388  0.1579
 3324SOL    HW111413   7.893   5.643   3.171 -0.2792  1.4989 -0.3033
 3324SOL    HW211414   7.753   5.592   3.149  0.6295 -1.3899  0.1593
 3325SOL     OW11415   7.286   1.721  11.635  0.0847  0.7121 -0.1681
 3325SOL    HW111416   7.286   1.815  11.653 -1.4158  0.9932 -1.4678
 3325SOL    HW211417   7.252   1.713  11.546 -0.2800 -1.0953  0.0923
 3326SOL     OW11418   4.599   5.260   0.287 -0.3974  0.4580  0.0622
 3326SOL    HW111419   4.574   5.180   0.241 -2.0053  0.9786 -0.0134
 3326SOL    HW211420   4.570   5.246   0.377  1.0505  0.2049  0.5127
 3327SOL     OW11421   1.129   0.357  10.951  0.3682 -0.1450  0.0070
 3327SOL    HW111422   1.042   0.388  10.927  0.9297  1.2359 -0.3236
 3327SOL    HW211423   1.182   0.436  10.957  1.6946 -0.9914 -0.1443
 3328SOL     OW11424   1.497   5.948   3.902 -0.1072  0.0053 -0.1328
 3328SOL    HW111425   1.419   6.002   3.913 -0.2378 -0.5056  1.8816
 3328SOL    HW211426   1.546   5.990   3.832 -0.4367  2.4882  1.0338
 3329SOL     OW11427   2.407   0.152   2.677  0.6653  0.0227  0.6038
 3329SOL    HW111428   2.391   0.125   2.587 -0.4762 -0.2388  0.8690
 3329SOL    HW211429   2.499   0.177   2.679  1.2561 -1.9312 -0.1358
 3330SOL     OW11430   0.952   0.494  10.545 -0.6063 -0.1456 -0.1099
 3330SOL    HW111431   0.973   0.567  10.488  1.2996  0.6810  1.5230
 3330SOL    HW211432   0.883   0.527  10.602  0.5231  0.5885  0.8864
 3331SOL     OW11433   5.923   4.408   5.953 -0.4790  0.0737 -0.3737
 3331SOL    HW111434   5.916   4.315   5.972  2.0386 -0.2869 -0.7695
 3331SOL    HW211435   5.896   4.416   5.861  0.6934 -0.5681 -0.8027
 3332SOL     OW11436   7.550   2.296   9.233  0.6874 -0.0681  0.2334
 3332SOL    HW111437   7.596   2.377   9.253  0.2268  0.4049 -0.5639
 3332SOL    HW211438   7.576   2.235   9.302  0.7533  0.8703  1.0439
 3333SOL     OW11439   2.659   6.144   3.400  0.2905  0.2948  0.5267
 3333SOL    HW111440   2.748   6.149   3.365  0.3658  1.3800  0.8457
 3333SOL    HW211441   2.664   6.189   3.484 -0.4170 -0.2399  0.8658
 3334SOL     OW11442   7.862   1.005   3.907  0.2452 -0.1104 -0.4545
 3334SOL    HW111443   7.921   1.016   3.832 -0.4740  0.1010 -0.9989
 3334SOL    HW211444   7.834   0.914   3.901 -0.2207  0.0511 -0.7508
 3335SOL     OW11445   4.438   2.427   6.646  0.4441 -0.3012 -0.3401
 3335SOL    HW111446   4.413   2.345   6.604  0.5611 -1.3329  1.4556
 3335SOL    HW211447   4.430   2.409   6.740  0.0808  1.8892  0.1089
 3336SOL     OW11448   5.324   5.498   7.353  0.6831 -0.4299  0.0398
 3336SOL    HW111449   5.380   5.510   7.276 -1.0980  0.5882 -1.2011
 3336SOL    HW211450   5.316   5.403   7.362  1.6817 -0.5716 -0.4507
 3337SOL     OW11451   5.849   4.316   8.010 -0.6733  0.3655  0.5717
 3337SOL    HW111452   5.802   4.245   8.053 -0.1672 -0.4769 -0.2264
 3337SOL    HW211453   5.915   4.343   8.074  0.1018 -0.9030  0.3551
 3338SOL     OW11454   5.567   3.218  11.560  0.1448  0.1558 -0.2922
 3338SOL    HW111455   5.504   3.289  11.571  0.3763  0.5150 -1.1674
 3338SOL    HW211456   5.514   3.138  11.563 -0.0739  0.3283  1.0390
 3339SOL     OW11457   6.208   5.784   7.077  0.4651 -0.7330  0.0573
 3339SOL    HW111458   6.190   5.703   7.125  1.3466 -1.3211 -0.5785
 3339SOL    HW211459   6.122   5.813   7.046 -0.1341 -0.3128  1.9830
 3340SOL     OW11460   0.041   7.021   5.803 -0.1175 -0.3318 -0.7394
 3340SOL    HW111461   0.098   6.959   5.848 -0.4917 -0.7648 -0.8507
 3340SOL    HW211462  -0.022   6.965   5.756 -2.4177  0.1345  1.6129
 3341SOL     OW11463   3.650   1.633   8.354  0.2707  0.6650  0.3591
 3341SOL    HW111464   3.629   1.546   8.390  2.4725  0.2612  0.7988
 3341SOL    HW211465   3.697   1.677   8.424  1.5049  1.2058 -0.7640
 3342SOL     OW11466   1.663   4.506   7.241  0.4673 -0.3995  0.7892
 3342SOL    HW111467   1.728   4.440   7.218 -0.0800 -0.8424  0.4732
 3342SOL    HW211468   1.582   4.475   7.200  0.6495  1.5712 -1.2044
 3343SOL     OW11469   1.521   6.929   5.422  0.0295 -0.1544 -0.0609
 3343SOL    HW111470   1.500   6.927   5.329  1.5514 -1.7961 -0.4213
 3343SOL    HW211471   1.580   7.004   5.432  3.4127 -2.4084 -1.3647
 3344SOL     OW11472   5.420   7.024   7.848  0.2372 -0.5399  0.7631
 3344SOL    HW111473   5.393   7.075   7.772  1.2134 -0.5904  0.3701
 3344SOL    HW211474   5.515   7.012   7.837  0.6721  0.7121  2.7286
 3345SOL     OW11475   0.546   3.309   2.352  0.1645 -0.3851 -0.1557
 3345SOL    HW111476   0.640   3.330   2.355  0.3962 -1.0924 -1.6180
 3345SOL    HW211477   0.512   3.361   2.280 -0.0674 -1.8823 -1.1709
 3346SOL     OW11478   2.111   7.395  12.085 -0.1804  0.1706 -0.3202
 3346SOL    HW111479   2.155   7.415  12.168 -0.0992  2.2424 -0.8207
 3346SOL    HW211480   2.022   7.425  12.097 -0.4470 -0.4540 -0.6673
 3347SOL     OW11481   5.663   2.453   5.064  0.4569 -0.0880 -0.5926
 3347SOL    HW111482   5.688   2.369   5.103  0.5603 -0.1368 -0.7659
 3347SOL    HW211483   5.576   2.471   5.100  1.1087  0.5288  0.7493
 3348SOL     OW11484   0.842   3.898   9.253  0.0159 -0.5966  0.4811
 3348SOL    HW111485   0.911   3.839   9.282 -1.7235 -2.2457  1.4667
 3348SOL    HW211486   0.862   3.915   9.161  1.1941 -1.7905  0.4866
 3349SOL     OW11487   5.254   4.558   8.908  0.0949  0.1103  0.2515
 3349SOL    HW111488   5.266   4.604   8.825  0.0666  2.2405  1.3619
 3349SOL    HW211489   5.309   4.480   8.901  0.3896  0.4487 -1.5920
 3350SOL     OW11490   7.737   0.742   0.117 -0.9999 -0.0694 -0.6183
 3350SOL    HW111491   7.672   0.750   0.047 -0.9674 -2.7532 -1.0613
 3350SOL    HW211492   7.821   0.750   0.073 -1.0013 -0.3050 -0.6678
 3351SOL     OW11493   7.268   3.836   8.255 -0.2239  0.2318  0.3902
 3351SOL    HW111494   7.252   3.745   8.280  1.6091  0.2266  1.7826
 3351SOL    HW211495   7.199   3.886   8.297 -1.2048 -0.4827 -0.3280
 3352SOL     OW11496   7.514   7.082  10.380  0.7183  0.4258 -0.1789
 3352SOL    HW111497   7.484   7.090  10.289 -2.1966  0.5305  0.6931
 3352SOL    HW211498   7.511   6.987  10.397 -0.0023  0.5043  0.1660
 3353SOL     OW11499   1.395   0.637   4.115  0.0606  0.1352  0.2910
 3353SOL    HW111500   1.392   0.725   4.078 -0.5751  0.4668  1.1212
 3353SOL    HW211501   1.477   0.600   4.081  0.4298  1.1100  0.0909
 3354SOL     OW11502   0.892   1.084   0.901 -0.3535  0.3778  0.0546
 3354SOL    HW111503   0.804   1.046   0.906 -0.5099  0.7039 -0.3024
 3354SOL    HW211504   0.880   1.177   0.920 -0.0166  0.3339  0.5192
 3355SOL     OW11505   0.118   1.430   2.244 -0.2871 -0.1118 -0.3262
 3355SOL    HW111506   0.086   1.445   2.333  0.4649  1.5165 -0.2870
 3355SOL    HW211507   0.178   1.356   2.253 -0.9469 -0.5856  0.3339
 3356SOL     OW11508   2.780   7.623   1.834 -0.0173  0.3612  0.3024
 3356SOL    HW111509   2.707   7.590   1.782  0.1892  1.5218 -0.7721
 3356SOL    HW211510   2.831   7.676   1.772  0.6870  1.1060  1.4904
 3357SOL     OW11511   1.643   1.228  10.418 -0.1121 -0.0201  0.2393
 3357SOL    HW111512   1.585   1.304  10.425 -1.9526 -1.3852  0.5993
 3357SOL    HW211513   1.728   1.260  10.449 -0.7714  1.9154  0.2212
 3358SOL     OW11514   1.326   1.955  12.093 -0.4235 -0.7051  0.1857
 3358SOL    HW111515   1.281   2.035  12.067  1.2226  0.3701  0.4935
 3358SOL    HW211516   1.275   1.922  12.167 -1.1691 -0.0034 -0.0016
 3359SOL     OW11517   7.878   5.729   6.196  0.6638 -0.5180  0.0980
 3359SOL    HW111518   7.785   5.745   6.185  0.4878 -1.9929 -0.7649
 3359SOL    HW211519   7.920   5.792   6.137  0.3109  1.0514  1.4568
 3360SOL     OW11520   3.562   6.417   2.997 -0.0079  0.3850 -0.0022
 3360SOL    HW111521   3.620   6.362   2.944 -0.7222  1.1796 -1.6718
 3360SOL    HW211522   3.618   6.449   3.068  1.4004  0.5180 -1.1354
 3361SOL     OW11523   5.478   6.426   3.136 -0.4141 -0.5924  0.0089
 3361SOL    HW111524   5.457   6.480   3.060 -0.1449  0.3983  0.6165
 3361SOL    HW211525   5.542   6.363   3.103 -0.3349 -0.2070 -0.5943
 3362SOL     OW11526   0.452   6.512   4.882  0.3454  0.0544  0.1416
 3362SOL    HW111527   0.473   6.426   4.845  1.0592  0.3615 -0.1861
 3362SOL    HW211528   0.505   6.517   4.962 -1.1033 -0.5590  1.1871
 3363SOL     OW11529   2.660   4.725   4.501  0.2350  0.1887 -0.2467
 3363SOL    HW111530   2.630   4.647   4.547  0.1500  0.4542  0.1543
 3363SOL    HW211531   2.729   4.761   4.557 -0.2245  0.8037 -0.0563
 3364SOL     OW11532   7.020   2.118   2.021 -0.4950 -0.2936  0.3806
 3364SOL    HW111533   7.026   2.107   1.926  0.6694 -0.6699  0.4842
 3364SOL    HW211534   6.942   2.172   2.034  0.1228  0.9767 -0.8846
 3365SOL     OW11535   1.918   5.415   3.106 -0.1829  0.0803  0.1049
 3365SOL    HW111536   1.857   5.463   3.050 -0.7640  0.3557  0.9566
 3365SOL    HW211537   1.987   5.477   3.126 -0.4491  0.2690  0.4400
 3366SOL     OW11538   3.976   1.854   4.204 -0.6941 -0.1108 -0.6977
 3366SOL    HW111539   4.024   1.790   4.152 -2.9650 -0.8738 -1.9701
 3366SOL    HW211540   3.982   1.821   4.294  1.3629  0.0208 -0.7253
 3367SOL     OW11541   2.465   2.982   7.193 -0.2808 -0.3434  0.3184
 3367SOL    HW111542   2.465   3.025   7.279  1.3851  0.8802 -0.2282
 3367SOL    HW211543   2.505   2.896   7.209  1.2161  0.3707  0.5998
 3368SOL     OW11544   4.973   0.748   3.591  0.0417  0.2487 -0.3850
 3368SOL    HW111545   4.932   0.663   3.606 -2.1018  0.6875 -2.9746
 3368SOL    HW211546   5.062   0.726   3.563 -0.1512 -1.0999 -0.0418
 3369SOL     OW11547   3.409   4.908  10.400 -0.5452  0.1621 -0.3210
 3369SOL    HW111548   3.399   4.829  10.452 -1.8350  0.4038 -0.1776
 3369SOL    HW211549   3.427   4.876  10.311 -0.0687 -0.2668 -0.0753
 3370SOL     OW11550   0.720   4.608  11.558  0.1143 -0.3398  0.3313
 3370SOL    HW111551   0.746   4.578  11.645  2.9582  1.8319  0.3625
 3370SOL    HW211552   0.789   4.575  11.500  0.2208  1.2050 -0.4785
 3371SOL     OW11553   0.707   5.974   6.225 -0.2372 -0.1602  0.3809
 3371SOL    HW111554   0.627   6.018   6.254 -0.4129  0.3531 -0.8573
 3371SOL    HW211555   0.689   5.881   6.241 -0.7202  0.0187  0.9472
 3372SOL     OW11556   5.242   3.927   6.549 -0.1394 -0.6087 -0.0638
 3372SOL    HW111557   5.165   3.983   6.550  0.3269  0.1036 -1.0943
 3372SOL    HW211558   5.223   3.862   6.482 -0.3021 -1.1214  0.4788
 3373SOL     OW11559   2.124   6.823   7.642 -0.6229 -0.0243  0.0949
 3373SOL    HW111560   2.213   6.843   7.671 -1.9617  3.7718  2.1912
 3373SOL    HW211561   2.079   6.792   7.720 -1.7280  0.4026 -0.3544
 3374SOL     OW11562   3.879   0.718  10.327 -0.0289  0.1979 -0.1569
 3374SOL    HW111563   3.955   0.693  10.380 -0.4015  0.7607  0.6642
 3374SOL    HW211564   3.880   0.814  10.326  1.1106  0.2414 -2.8793
 3375SOL     OW11565   1.147   6.373   3.998 -0.2790  0.3245 -0.1801
 3375SOL    HW111566   1.225   6.428   4.001  0.2048 -0.2810 -1.1758
 3375SOL    HW211567   1.101   6.399   3.918 -0.7857  0.2554  0.0829
 3376SOL     OW11568   5.258   2.563   6.592  0.3307 -1.2534 -0.2232
 3376SOL    HW111569   5.193   2.547   6.523  1.4754 -1.6404 -1.2490
 3376SOL    HW211570   5.259   2.658   6.603  0.4334 -1.1507 -1.0498
 3377SOL     OW11571   2.402   5.828   4.024 -0.0720  0.0895  0.2780
 3377SOL    HW111572   2.362   5.776   4.094 -1.1407  1.6001  0.8497
 3377SOL    HW211573   2.420   5.765   3.954  1.4823 -1.5754  2.0513
 3378SOL     OW11574   2.966   5.099   4.049 -0.2495 -0.0865  0.0256
 3378SOL    HW111575   2.882   5.060   4.024 -0.2550  0.9041 -1.6787
 3378SOL    HW211576   2.949   5.142   4.132 -0.9713 -1.3126  0.5358
 3379SOL     OW11577   0.778   7.218   9.901 -0.6481 -0.7373 -0.1572
 3379SOL    HW111578   0.721   7.294   9.892  0.3938 -0.1838 -3.0310
 3379SOL    HW211579   0.832   7.238   9.977 -1.1970  0.8550 -0.1528
 3380SOL     OW11580   7.021   1.268   5.047 -0.7882  0.2262  0.4947
 3380SOL    HW111581   6.994   1.287   4.957  0.1346  1.5608  0.4626
 3380SOL    HW211582   6.944   1.290   5.100 -1.1386 -0.0029  0.0882
 3381SOL     OW11583   4.962   0.088   7.316 -0.3781  0.3714  0.2357
 3381SOL    HW111584   4.994   0.141   7.389 -0.3346  0.7102 -0.0273
 3381SOL    HW211585   4.963  -0.002   7.349 -0.9872  0.5900  0.8760
 3382SOL     OW11586   7.032   6.092   6.500  0.2257  0.1966  0.4563
 3382SOL    HW111587   6.953   6.121   6.455 -0.2827 -0.5373  0.8697
 3382SOL    HW211588   7.098   6.084   6.431 -0.3278 -0.1437 -0.0295
 3383SOL     OW11589   4.494   6.477   5.373  0.2197  0.2345  0.1213
 3383SOL    HW111590   4.583   6.488   5.406 -0.0221 -1.2302  1.3731
 3383SOL    HW211591   4.498   6.400   5.317 -0.1632  0.5130 -0.3029
 3384SOL     OW11592   2.838   7.330  10.612 -0.0394 -0.0079  0.2465
 3384SOL    HW111593   2.791   7.371  10.684  0.7528 -0.6961  1.1854
 3384SOL    HW211594   2.838   7.237  10.633  1.2564 -0.0838  0.0033
 3385SOL     OW11595   4.255   7.236   5.628 -0.2566  0.0322  0.1176
 3385SOL    HW111596   4.328   7.298   5.637 -2.1512  2.3872  0.5345
 3385SOL    HW211597   4.243   7.200   5.716 -1.0119  1.4473  0.6291
 3386SOL     OW11598   5.230   2.350   8.933 -0.2184  0.0704  0.2428
 3386SOL    HW111599   5.272   2.340   9.018  2.5513 -0.6434 -1.0642
 3386SOL    HW211600   5.269   2.431   8.897 -0.2722 -0.3764 -0.8591
 3387SOL     OW11601   1.131   1.915  10.838 -0.9216  0.0265  0.3320
 3387SOL    HW111602   1.061   1.853  10.819 -2.5758  1.5439  1.2038
 3387SOL    HW211603   1.132   1.973  10.762  0.1554 -0.6172 -0.1682
 3388SOL     OW11604   6.729   5.275   8.892  0.3263  0.5189  0.5180
 3388SOL    HW111605   6.801   5.212   8.896 -1.0198 -1.1713 -0.5956
 3388SOL    HW211606   6.721   5.307   8.982  1.3122 -0.6003  1.0351
 3389SOL     OW11607   4.813   0.518   6.285  0.6881 -0.0363  0.4613
 3389SOL    HW111608   4.819   0.500   6.379  0.2833 -0.2357  0.4476
 3389SOL    HW211609   4.905   0.521   6.256  0.7919 -1.4332  0.5858
 3390SOL     OW11610   5.212   4.467  11.637 -0.5348 -0.3640 -0.2688
 3390SOL    HW111611   5.221   4.432  11.726  1.9230 -1.0351 -0.6850
 3390SOL    HW211612   5.168   4.398  11.588 -1.8004 -0.0376  0.3847
 3391SOL     OW11613   6.380   0.087   4.950  0.2411 -0.3309 -0.1972
 3391SOL    HW111614   6.291   0.117   4.971  0.1602 -0.8902  0.2708
 3391SOL    HW211615   6.428   0.095   5.032  0.6652  0.1021 -0.4847
 3392SOL     OW11616   4.072   5.677  12.162  0.3492 -0.2279 -0.4127
 3392SOL    HW111617   3.986   5.667  12.122  0.5798 -0.3409 -0.8888
 3392SOL    HW211618   4.096   5.768  12.144  0.2694 -0.1553 -0.1562
 3393SOL     OW11619   7.457   7.716   1.991  0.3570 -0.0822  0.1195
 3393SOL    HW111620   7.460   7.722   1.895  0.3471 -1.3240  0.0183
 3393SOL    HW211621   7.514   7.641   2.011 -0.6885 -0.6691  0.9748
 3394SOL     OW11622   6.536   6.332   9.786  0.0409 -0.0360 -0.0427
 3394SOL    HW111623   6.458   6.333   9.730 -0.9433  2.1460  1.2644
 3394SOL    HW211624   6.534   6.415   9.833  3.2640  0.1786 -0.0394
 3395SOL     OW11625   5.928   1.751   7.412 -0.6013  0.0162  0.1593
 3395SOL    HW111626   5.927   1.821   7.347 -1.1549 -0.0234  0.1143
 3395SOL    HW211627   5.846   1.703   7.397 -0.9284  0.2308  1.1212
 3396SOL     OW11628   1.120   7.079   5.483  0.5421  0.0616  0.1287
 3396SOL    HW111629   1.202   7.046   5.521  0.6733  1.4006  1.0778
 3396SOL    HW211630   1.059   7.005   5.490  1.5474 -0.8323 -0.2488
 3397SOL     OW11631   0.692   0.831   4.874 -0.1745 -0.1788 -0.7962
 3397SOL    HW111632   0.747   0.773   4.926 -0.9945 -0.6514 -0.4308
 3397SOL    HW211633   0.725   0.919   4.893 -0.0373 -0.3988  0.0156
 3398SOL     OW11634   3.929   7.603   4.779  0.2555  0.2899 -0.3453
 3398SOL    HW111635   3.896   7.586   4.868  1.3419  2.7839  0.6244
 3398SOL    HW211636   3.894   7.530   4.727 -2.6650  0.1446  1.5377
 3399SOL     OW11637   5.687   2.504   4.009  0.2597 -0.2678 -0.3687
 3399SOL    HW111638   5.600   2.468   4.030  0.1961  0.9756  1.8216
 3399SOL    HW211639   5.697   2.489   3.915 -2.4382 -0.2132 -0.7449
 3400SOL     OW11640   5.598   0.959   8.854 -0.1415  0.3449 -0.3646
 3400SOL    HW111641   5.523   0.939   8.910  0.0405 -0.5233 -0.4236
 3400SOL    HW211642   5.612   1.053   8.866 -0.3609  0.2506  0.7298
 3401SOL     OW11643   6.221   4.091   9.182 -0.0599 -0.0105  0.3556
 3401SOL    HW111644   6.182   4.009   9.210 -2.5067  0.5702 -1.0201
 3401SOL    HW211645   6.150   4.155   9.188  1.5020  1.8186  0.4665
 3402SOL     OW11646   4.233   4.146   5.382  0.5820  0.4863  0.2708
 3402SOL    HW111647   4.301   4.078   5.385 -0.9492 -1.0985  0.5372
 3402SOL    HW211648   4.204   4.147   5.291  0.9713  1.1969  0.1470
 3403SOL     OW11649   1.126   7.920   2.121  0.3252  0.3263  0.2854
 3403SOL    HW111650   1.126   7.988   2.053 -0.6203  1.8203  1.6923
 3403SOL    HW211651   1.219   7.905   2.139  0.6106 -0.2829 -1.4566
 3404SOL     OW11652   2.973   6.943   0.892 -0.7041 -0.2924  0.2827
 3404SOL    HW111653   2.953   6.895   0.972  0.7453  0.8158  1.3601
 3404SOL    HW211654   3.065   6.924   0.874 -0.5141  0.8934 -0.0953
 3405SOL     OW11655   7.258   4.708   4.395 -0.4486 -0.0227  0.1141
 3405SOL    HW111656   7.208   4.778   4.438 -1.0774 -0.8799  0.8044
 3405SOL    HW211657   7.196   4.636   4.387  0.5528 -0.9552  0.5636
 3406SOL     OW11658   0.717   3.264   4.766 -0.2057 -0.5664  0.0517
 3406SOL    HW111659   0.730   3.337   4.826  3.2648 -0.3912 -0.7096
 3406SOL    HW211660   0.716   3.186   4.821 -0.6780 -0.1680  0.6100
 3407SOL     OW11661   6.339   1.499   6.430 -0.7035  0.6990 -0.0672
 3407SOL    HW111662   6.295   1.494   6.345 -1.3383  1.5786  0.1992
 3407SOL    HW211663   6.330   1.411   6.467 -1.9704  0.7799 -0.1616
 3408SOL     OW11664   1.832   5.138  10.041 -0.2302  0.4940 -0.1503
 3408SOL    HW111665   1.757   5.130  10.099 -0.5135  0.9176 -0.4559
 3408SOL    HW211666   1.903   5.169  10.097  0.0786 -1.1500  0.4106
 3409SOL     OW11667   6.338   1.030   3.310 -0.1110  0.4779 -0.1391
 3409SOL    HW111668   6.253   1.016   3.351 -0.2699  0.4982 -0.4568
 3409SOL    HW211669   6.398   1.041   3.383  0.0392 -1.8379  0.1706
 3410SOL     OW11670   0.159   6.665   7.799 -0.8330 -0.3325 -0.1681
 3410SOL    HW111671   0.241   6.662   7.849 -0.5489 -0.1459 -0.6124
 3410SOL    HW211672   0.137   6.758   7.795  0.0370 -0.1538 -1.7861
 3411SOL     OW11673   1.893   3.899   6.629 -0.8450  0.6162  0.3870
 3411SOL    HW111674   1.935   3.854   6.702 -0.6524 -0.5603 -0.4287
 3411SOL    HW211675   1.806   3.859   6.624 -0.1728 -0.7400 -1.2482
 3412SOL     OW11676   0.586   2.478   8.430  0.3679 -0.1552  0.2515
 3412SOL    HW111677   0.561   2.462   8.339 -1.0997  1.9801  0.2033
 3412SOL    HW211678   0.528   2.549   8.458 -0.5131 -1.9695  3.4284
 3413SOL     OW11679   1.468   3.974   4.833 -0.4578  0.3201  0.5852
 3413SOL    HW111680   1.556   4.008   4.850 -0.4395 -0.8207  3.4626
 3413SOL    HW211681   1.409   4.043   4.867 -0.5820  0.0973  0.8287
 3414SOL     OW11682   7.787   5.327  10.009 -0.3480 -0.3456 -0.5256
 3414SOL    HW111683   7.708   5.353  10.055 -0.6719 -0.3249 -1.0855
 3414SOL    HW211684   7.790   5.384   9.932 -0.8920 -1.6909 -1.5924
 3415SOL     OW11685   3.075   3.067   5.167  0.6335  0.0891 -0.0157
 3415SOL    HW111686   3.001   3.016   5.134  1.0164 -0.9706  0.6809
 3415SOL    HW211687   3.121   3.097   5.089  0.5237 -0.8467 -0.4535
 3416SOL     OW11688   7.544   1.247  11.059 -0.1155 -0.0464  0.4515
 3416SOL    HW111689   7.578   1.193  11.130  1.0683  0.4963  0.3306
 3416SOL    HW211690   7.458   1.276  11.090 -0.0886 -0.7175  1.1853
 3417SOL     OW11691   3.539   7.530   2.043  0.1257  0.0545 -0.1335
 3417SOL    HW111692   3.530   7.553   1.950 -1.1111  0.4795  0.0818
 3417SOL    HW211693   3.550   7.435   2.043  2.9464  0.2839 -0.8842
 3418SOL     OW11694   6.334   7.639   8.231  0.1931 -0.4469  0.2906
 3418SOL    HW111695   6.254   7.589   8.249 -0.1002  0.8088  2.9331
 3418SOL    HW211696   6.404   7.588   8.273  0.3246 -0.0594  0.5420
 3419SOL     OW11697   7.758   3.883   5.493 -0.3534  0.5360  0.3996
 3419SOL    HW111698   7.819   3.956   5.504 -0.1869  0.4434  0.1072
 3419SOL    HW211699   7.734   3.886   5.400 -0.3867  0.2518  0.3990
 3420SOL     OW11700   5.003   3.687   1.944  0.0896  0.2103  0.2311
 3420SOL    HW111701   5.080   3.659   1.894 -0.7230 -0.6126 -0.6040
 3420SOL    HW211702   5.032   3.686   2.036  1.2424  0.5269 -0.1171
 3421SOL     OW11703   3.553   5.391   2.803  0.0394  0.5595  0.2168
 3421SOL    HW111704   3.569   5.297   2.812  0.3700  0.5890 -0.0727
 3421SOL    HW211705   3.633   5.432   2.836  0.8435  0.6983 -1.7715
 3422SOL     OW11706   6.912   1.956   5.816 -0.1541  0.0809  0.3244
 3422SOL    HW111707   6.864   2.016   5.872  0.0616 -1.6320  2.5063
 3422SOL    HW211708   6.877   1.869   5.838  0.8381 -0.7906 -1.2993
 3423SOL     OW11709   7.261   3.938   6.502  0.4387 -0.2596  0.2863
 3423SOL    HW111710   7.208   3.885   6.563 -1.1241  0.6593 -0.2235
 3423SOL    HW211711   7.331   3.879   6.475 -2.7183 -3.2064 -2.4006
 3424SOL     OW11712   5.127   6.677   3.681  0.3738 -0.4829  1.1288
 3424SOL    HW111713   5.057   6.698   3.743  0.4403 -0.1628  1.0973
 3424SOL    HW211714   5.203   6.725   3.715  0.7774 -1.4115  1.5838
 3425SOL     OW11715   2.669   4.567   0.881  0.5645 -0.1917  0.1199
 3425SOL    HW111716   2.643   4.616   0.803 -1.0390 -0.4299  0.4692
 3425SOL    HW211717   2.717   4.630   0.934  2.7730 -0.3378 -1.5486
 3426SOL     OW11718   7.785   5.928   4.820 -0.2747  0.5485  0.1835
 3426SOL    HW111719   7.698   5.956   4.791  0.0051  1.8123  0.4988
 3426SOL    HW211720   7.824   6.007   4.858  0.6486 -0.2312  0.9160
 3427SOL     OW11721   6.645   4.781   5.244 -0.3657 -0.3631  0.1805
 3427SOL    HW111722   6.603   4.804   5.161 -0.5889  0.8960  0.6182
 3427SOL    HW211723   6.737   4.800   5.230 -0.5766  1.1649  0.6126
 3428SOL     OW11724   3.053   1.617   1.878  0.8552  0.3585 -0.0957
 3428SOL    HW111725   3.124   1.673   1.909  0.0800  0.6605  1.2130
 3428SOL    HW211726   2.974   1.671   1.883  0.1184 -0.7481  1.0254
 3429SOL     OW11727   7.764   1.303   5.414 -0.2236  0.8799 -0.1185
 3429SOL    HW111728   7.842   1.354   5.393  0.2228  0.4485  0.4670
 3429SOL    HW211729   7.719   1.353   5.482 -1.3664  1.9827 -1.6067
 3430SOL     OW11730   5.835   3.503   6.774 -0.4709  0.3912 -0.1071
 3430SOL    HW111731   5.784   3.427   6.802  0.8235 -0.7262 -0.6776
 3430SOL    HW211732   5.830   3.502   6.678  1.6980 -0.5914 -0.2828
 3431SOL     OW11733   6.770   5.476   1.638  0.0315 -0.2537 -0.2597
 3431SOL    HW111734   6.675   5.470   1.630 -0.0675  2.3088 -2.4109
 3431SOL    HW211735   6.805   5.417   1.571 -0.1229  0.1571 -0.7095
 3432SOL     OW11736   4.374   7.573   0.115 -0.9131  0.0050 -0.5439
 3432SOL    HW111737   4.405   7.491   0.152 -1.5646  0.4228  0.9889
 3432SOL    HW211738   4.399   7.640   0.178 -1.6262  0.8105 -1.0793
 3433SOL     OW11739   2.026   2.818  11.012  0.1279  0.4421  0.5257
 3433SOL    HW111740   2.075   2.751  11.060 -0.0077 -0.0491 -0.0126
 3433SOL    HW211741   2.082   2.895  11.015 -1.1466  1.4542  4.1408
 3434SOL     OW11742   4.781   3.673   1.554  0.4834  0.0615 -0.2884
 3434SOL    HW111743   4.769   3.614   1.479  0.8493 -1.5873  0.9029
 3434SOL    HW211744   4.859   3.725   1.531  0.2753 -0.0506 -1.2779
 3435SOL     OW11745   1.017   7.290   2.898  0.0842 -0.2597 -0.1962
 3435SOL    HW111746   0.963   7.288   2.977  1.2667 -0.2571  0.6426
 3435SOL    HW211747   0.995   7.210   2.851  0.1664 -0.8142  0.7008
 3436SOL     OW11748   3.373   3.227  12.310 -0.2013  0.7184 -0.2021
 3436SOL    HW111749   3.338   3.254  12.225  0.8132 -0.4268 -1.0126
 3436SOL    HW211750   3.346   3.136  12.319  0.3027  0.6193  0.3767
 3437SOL     OW11751   6.401   6.946   5.638 -0.2060 -0.0299 -0.4136
 3437SOL    HW111752   6.459   6.914   5.568 -2.1138  1.3794 -2.8023
 3437SOL    HW211753   6.428   6.897   5.715  2.1299 -1.6133 -2.0831
 3438SOL     OW11754   1.782   5.009   1.144 -0.1900  0.6969  0.0115
 3438SOL    HW111755   1.719   5.080   1.132 -0.8955 -0.0292 -0.6989
 3438SOL    HW211756   1.849   5.025   1.078 -0.8572  0.1632 -0.8023
 3439SOL     OW11757   0.494   0.660   9.989 -0.1636 -0.2462  0.1396
 3439SOL    HW111758   0.474   0.570  10.012 -0.2680 -0.5379 -1.0024
 3439SOL    HW211759   0.557   0.689  10.055  1.1886 -1.7341 -0.4242
 3440SOL     OW11760   0.209   3.490   4.573 -1.0985 -0.3052 -0.1815
 3440SOL    HW111761   0.230   3.406   4.532  2.5847  0.7468 -0.8204
 3440SOL    HW211762   0.244   3.555   4.513  1.4405  1.4563  2.8937
 3441SOL     OW11763   5.116   2.486  11.014  0.2753 -0.3259 -0.5107
 3441SOL    HW111764   5.162   2.553  11.063 -0.6268 -0.3643  0.4081
 3441SOL    HW211765   5.091   2.420  11.079 -0.6491 -0.5432 -1.0567
 3442SOL     OW11766   1.551   5.811   9.822  0.0965  0.1321  0.1880
 3442SOL    HW111767   1.568   5.895   9.865  0.1918  0.5027 -0.5613
 3442SOL    HW211768   1.463   5.820   9.785  0.7838  0.5685 -1.4086
 3443SOL     OW11769   2.932   2.085   1.225 -0.1392  0.1142 -0.4628
 3443SOL    HW111770   2.932   2.059   1.133 -0.0693  0.6702 -0.6246
 3443SOL    HW211771   3.006   2.037   1.263 -0.6994 -0.7833 -0.4966
 3444SOL     OW11772   4.680   6.265   1.887  0.0506  0.4109  0.0887
 3444SOL    HW111773   4.698   6.356   1.908 -1.0247  0.7300 -0.2936
 3444SOL    HW211774   4.732   6.215   1.950  2.7087  1.1968 -1.3194
 3445SOL     OW11775   3.512   0.529   8.904 -0.6306  0.6509  0.5005
 3445SOL    HW111776   3.607   0.532   8.917 -0.4975 -0.7256  0.0494
 3445SOL    HW211777   3.501   0.484   8.820 -1.7042 -2.3747  2.1024
 3446SOL     OW11778   0.160   2.517  10.303  0.1177  0.5172 -0.6227
 3446SOL    HW111779   0.182   2.607  10.277  2.4719  0.1215 -0.2201
 3446SOL    HW211780   0.243   2.479  10.330 -1.1383 -1.2185  1.0492
 3447SOL     OW11781   1.379   5.253   7.410 -0.1549 -0.3392  0.2011
 3447SOL    HW111782   1.426   5.169   7.409  0.1187 -0.1888  0.2183
 3447SOL    HW211783   1.345   5.260   7.499 -0.5058 -0.6097  0.0913
 3448SOL     OW11784   1.491   0.545   4.521 -0.1944 -0.2612  0.4987
 3448SOL    HW111785   1.412   0.583   4.483 -0.5823  1.5575  2.8897
 3448SOL    HW211786   1.458   0.483   4.587  0.3630  0.1746  1.1975
 3449SOL     OW11787   6.258   3.658  11.333 -0.1179 -0.0783 -0.2438
 3449SOL    HW111788   6.314   3.700  11.267 -1.2780  3.4178  0.7819
 3449SOL    HW211789   6.184   3.623  11.283 -0.1638  1.0509 -1.0086
 3450SOL     OW11790   6.819   5.560   4.336  0.0952 -0.3120  0.1482
 3450SOL    HW111791   6.844   5.642   4.293 -2.3388  0.5472  0.2377
 3450SOL    HW211792   6.871   5.493   4.292  0.6976  1.0361 -1.2964
 3451SOL     OW11793   0.594   7.420   2.692 -0.2577 -0.5008  0.5139
 3451SOL    HW111794   0.624   7.329   2.694 -0.0184 -0.4578 -0.4590
 3451SOL    HW211795   0.670   7.469   2.662 -0.7106 -0.1322 -0.0537
 3452SOL     OW11796   7.162   1.479  11.729  0.7503 -1.0404  0.1347
 3452SOL    HW111797   7.187   1.559  11.682 -1.5233 -0.0316  0.4875
 3452SOL    HW211798   7.164   1.410  11.663  2.5987 -0.6976 -0.2159
 3453SOL     OW11799   7.094   3.537   9.363 -0.9245  0.1637  0.0901
 3453SOL    HW111800   7.067   3.447   9.345 -2.0583  0.5553 -0.2550
 3453SOL    HW211801   7.092   3.580   9.278  0.3787  0.3284  0.1336
 3454SOL     OW11802   4.851   7.200   8.326  0.0547 -0.3560  0.0674
 3454SOL    HW111803   4.925   7.260   8.332 -0.0378 -0.2820  0.4971
 3454SOL    HW211804   4.779   7.244   8.372  0.2593 -1.1960  1.2470
 3455SOL     OW11805   1.330   1.127   0.089  0.2477 -0.6353 -0.4886
 3455SOL    HW111806   1.297   1.190   0.153  0.5780  0.5401 -1.4262
 3455SOL    HW211807   1.281   1.047   0.105  1.1851 -0.8020  2.0604
 3456SOL     OW11808   1.727   3.343  11.427 -0.1734 -0.5318  0.1615
 3456SOL    HW111809   1.753   3.426  11.388 -1.6417 -0.1329 -0.0243
 3456SOL    HW211810   1.691   3.366  11.512 -1.3843 -0.8702 -0.2437
 3457SOL     OW11811   4.320   6.219   9.276  0.4272 -0.3384  0.1863
 3457SOL    HW111812   4.241   6.179   9.241 -0.4440  2.1217 -0.8946
 3457SOL    HW211813   4.337   6.294   9.219  2.5674  0.2044  1.4063
 3458SOL     OW11814   3.529   5.600   4.994 -0.1455  0.2123 -0.1072
 3458SOL    HW111815   3.521   5.530   4.929 -0.5916 -1.0592  1.2433
 3458SOL    HW211816   3.496   5.560   5.075  0.9794  1.5198  1.0402
 3459SOL     OW11817   1.000   7.920   2.560 -0.6036  0.1095  0.3163
 3459SOL    HW111818   1.020   7.999   2.610  1.7537 -0.1684 -0.0638
 3459SOL    HW211819   0.981   7.952   2.471 -0.1575  0.2881  0.2842
 3460SOL     OW11820   4.043   0.036   2.519  0.0109  0.4076 -0.2880
 3460SOL    HW111821   4.100  -0.022   2.467 -0.3292  0.7876 -1.1055
 3460SOL    HW211822   3.967   0.051   2.463 -0.7814  0.1233  0.6871
 3461SOL     OW11823   3.507   0.423  11.759  0.1783 -0.1242  0.1227
 3461SOL    HW111824   3.444   0.453  11.693 -0.2696  0.4569  0.8078
 3461SOL    HW211825   3.471   0.453  11.842 -0.0468 -2.1230  0.8075
 3462SOL     OW11826   6.514   6.009   7.289 -0.3021  0.5281 -0.3542
 3462SOL    HW111827   6.593   5.958   7.270 -0.1226  0.9621 -0.7850
 3462SOL    HW211828   6.517   6.023   7.384  0.2910  0.7963 -0.4061
 3463SOL     OW11829   6.793   2.959  12.193  0.3569  1.2059 -0.1567
 3463SOL    HW111830   6.871   2.979  12.245 -0.1099  1.4483  0.4544
 3463SOL    HW211831   6.721   2.999  12.241 -0.1686  0.8613 -0.6450
 3464SOL     OW11832   2.530   3.528  10.847  0.3661  0.4484 -0.3452
 3464SOL    HW111833   2.468   3.508  10.916 -1.4678 -0.8291 -2.2563
 3464SOL    HW211834   2.570   3.444  10.823 -1.0653  0.3229 -2.6173
 3465SOL     OW11835   1.161   5.211   0.804 -0.2886  0.4138  0.5030
 3465SOL    HW111836   1.169   5.138   0.742  3.8999  0.0615  1.1287
 3465SOL    HW211837   1.115   5.279   0.756  1.6624 -0.2793 -2.6869
 3466SOL     OW11838   0.930   7.122   5.733 -0.0482  0.2160 -0.2301
 3466SOL    HW111839   0.884   7.206   5.724  0.5199  0.8303  2.0310
 3466SOL    HW211840   0.868   7.057   5.700 -1.3006  1.3304 -0.1491
 3467SOL     OW11841   2.433   4.858   7.007 -0.3430  0.2299 -0.6151
 3467SOL    HW111842   2.383   4.786   7.046  0.7079 -0.3149 -0.2487
 3467SOL    HW211843   2.464   4.823   6.923 -0.0561  0.3467 -0.5586
 3468SOL     OW11844   5.165   2.458   9.863  1.0807 -0.0514  0.1779
 3468SOL    HW111845   5.159   2.483   9.955  1.3725 -0.3158  0.2728
 3468SOL    HW211846   5.075   2.442   9.837  0.9283  0.7211  0.2180
 3469SOL     OW11847   1.846   1.738  11.628  0.2825  0.1809  0.0177
 3469SOL    HW111848   1.880   1.765  11.713  0.6395  0.1530 -0.1141
 3469SOL    HW211849   1.869   1.645  11.622 -2.8831 -0.8372  1.4399
 3470SOL     OW11850   3.227   0.283  11.402 -0.6095  0.2178 -0.3414
 3470SOL    HW111851   3.300   0.280  11.340  0.4119  1.9886  0.7064
 3470SOL    HW211852   3.149   0.290  11.347  0.0256 -0.9932 -1.4596
 3471SOL     OW11853   6.969   7.407   4.562  1.0550 -0.0140  0.7031
 3471SOL    HW111854   6.909   7.390   4.634 -0.4013 -0.8867 -0.6512
 3471SOL    HW211855   7.055   7.409   4.602  0.1253  1.8956  2.8253
 3472SOL     OW11856   3.160   2.369   5.301 -0.2210 -0.2024  0.0859
 3472SOL    HW111857   3.071   2.341   5.282 -0.6342 -0.4879  2.1483
 3472SOL    HW211858   3.158   2.464   5.295 -0.5208 -0.2338 -0.3758
 3473SOL     OW11859   5.696   1.308  12.141 -0.5632  0.3166  0.1118
 3473SOL    HW111860   5.784   1.335  12.113 -1.4969  2.5980 -0.8378
 3473SOL    HW211861   5.693   1.329  12.234  0.0279 -0.1884  0.2508
 3474SOL     OW11862   6.406   4.466  11.185 -0.1467 -0.3243  0.2678
 3474SOL    HW111863   6.332   4.472  11.124  0.2320  0.6846 -0.1165
 3474SOL    HW211864   6.449   4.551  11.178  0.0415 -0.2806  1.7804
 3475SOL     OW11865   1.599   7.516   2.595  0.3008  0.5921  0.2684
 3475SOL    HW111866   1.677   7.460   2.601  1.3043  1.9486  0.3739
 3475SOL    HW211867   1.606   7.574   2.671 -1.7673 -0.3838  1.2771
 3476SOL     OW11868   0.660   1.959   8.925  0.3329 -0.2468  0.4667
 3476SOL    HW111869   0.739   1.976   8.976 -0.7270  0.6784  1.8658
 3476SOL    HW211870   0.692   1.914   8.847  2.1245 -0.8835  1.4919
 3477SOL     OW11871   5.528   2.217   9.069  0.6475 -0.3366 -0.0544
 3477SOL    HW111872   5.578   2.238   8.990  0.4924 -0.6892 -0.2503
 3477SOL    HW211873   5.533   2.296   9.122  1.2359 -0.2953 -0.1667
 3478SOL     OW11874   4.226   0.169  11.368 -0.9791 -0.2487 -0.3647
 3478SOL    HW111875   4.240   0.231  11.296 -2.9693  1.1121  0.3361
 3478SOL    HW211876   4.148   0.120  11.343 -0.9693 -0.6185  0.2982
 3479SOL     OW11877   4.095   1.223   4.150  0.0821  0.4063 -0.0074
 3479SOL    HW111878   4.061   1.242   4.238 -0.8150  1.0960 -0.4874
 3479SOL    HW211879   4.079   1.130   4.138  0.5370  0.2271  0.6949
 3480SOL     OW11880   5.855   5.537   5.266 -0.1614 -0.2143 -0.5120
 3480SOL    HW111881   5.871   5.504   5.354 -0.9346  0.5560 -0.0575
 3480SOL    HW211882   5.766   5.574   5.271  1.2611  3.6202 -0.4130
 3481SOL     OW11883   5.231   3.711   6.390  0.3118  0.4213 -0.3122
 3481SOL    HW111884   5.233   3.666   6.306  1.4261  2.4555 -1.4535
 3481SOL    HW211885   5.225   3.641   6.455  0.4711 -1.2476 -2.0224
 3482SOL     OW11886   4.250   4.746  10.136  0.7321  0.4286 -0.5428
 3482SOL    HW111887   4.231   4.657  10.166  0.5807  1.4168  2.6345
 3482SOL    HW211888   4.178   4.767  10.077 -1.1902 -0.3858  1.3764
 3483SOL     OW11889   0.015   6.004   0.234  0.1756 -0.6006 -0.3118
 3483SOL    HW111890  -0.076   6.030   0.216 -0.3651 -1.5103  0.8901
 3483SOL    HW211891   0.032   5.932   0.174  0.0245 -0.5426 -0.4242
 3484SOL     OW11892   5.327   7.677   3.226 -0.1492  0.1506 -0.2311
 3484SOL    HW111893   5.376   7.639   3.298 -0.1048  0.7581  0.0642
 3484SOL    HW211894   5.376   7.651   3.147 -0.4125 -0.8365 -0.0817
 3485SOL     OW11895   4.489   0.203   3.045 -0.0542  0.4280 -0.0372
 3485SOL    HW111896   4.565   0.151   3.072 -0.0223  0.1877 -0.5758
 3485SOL    HW211897   4.423   0.138   3.020 -0.7363  0.6199  1.2077
 3486SOL     OW11898   5.762   1.420   4.468  0.1825 -0.2367  0.1754
 3486SOL    HW111899   5.837   1.472   4.438 -0.3785  2.2916  2.6721
 3486SOL    HW211900   5.685   1.469   4.439 -0.5909 -2.2844 -1.5116
 3487SOL     OW11901   5.390   3.221   0.521  0.0641  0.2117 -0.4771
 3487SOL    HW111902   5.343   3.272   0.587  0.7490  0.5294 -0.2219
 3487SOL    HW211903   5.475   3.204   0.561 -0.4959 -2.0446 -0.1042
 3488SOL     OW11904   3.081   6.514   6.448 -0.2996 -0.0441  1.5137
 3488SOL    HW111905   3.143   6.442   6.453 -0.2858 -0.1292  0.3903
 3488SOL    HW211906   3.136   6.592   6.434 -0.4604 -0.2623 -0.6465
 3489SOL     OW11907   2.232   3.705   5.266 -0.3560  0.6073  0.1021
 3489SOL    HW111908   2.191   3.715   5.180 -2.3080  2.7425  1.1652
 3489SOL    HW211909   2.266   3.793   5.286  0.5899  0.0030  1.2943
 3490SOL     OW11910   7.824   3.914   2.850  0.6805  0.0159 -0.0581
 3490SOL    HW111911   7.891   3.877   2.907  1.0501 -0.7258 -0.9398
 3490SOL    HW211912   7.872   3.973   2.792  0.4646  0.0619 -0.1919
 3491SOL     OW11913   1.224   3.364   7.901 -0.3430  0.2791 -0.0090
 3491SOL    HW111914   1.312   3.398   7.916 -0.2630  0.0179  0.1264
 3491SOL    HW211915   1.194   3.337   7.988  0.7388 -2.7592 -0.4592
 3492SOL     OW11916   7.530   0.448   9.684  0.0122 -0.6077 -0.2047
 3492SOL    HW111917   7.494   0.368   9.723  1.4924 -1.2130 -0.0102
 3492SOL    HW211918   7.536   0.427   9.591 -1.8535  0.1918 -0.5502
 3493SOL     OW11919   3.850   2.614   6.043  0.3573  0.2986  0.1687
 3493SOL    HW111920   3.773   2.588   5.993  0.6304 -0.3953  0.0948
 3493SOL    HW211921   3.822   2.611   6.135  0.5148 -0.7687  0.1952
 3494SOL     OW11922   6.793   3.833   9.878  0.2799 -0.2156 -0.1280
 3494SOL    HW111923   6.845   3.874   9.809  1.1964 -1.0981  0.0088
 3494SOL    HW211924   6.841   3.752   9.899  0.2346  0.2067  1.7921
 3495SOL     OW11925   6.810   2.981  11.750 -0.2156 -0.0404 -0.2630
 3495SOL    HW111926   6.783   2.923  11.679  0.9725  0.9934 -1.6395
 3495SOL    HW211927   6.869   3.044  11.708  1.9783 -0.4438  1.9816
 3496SOL     OW11928   2.661   7.435   2.339  0.6120 -0.3057  0.6063
 3496SOL    HW111929   2.595   7.504   2.344 -1.4575 -1.7839 -2.9564
 3496SOL    HW211930   2.621   7.360   2.385  0.8238 -0.5177  0.4478
 3497SOL     OW11931   6.583   5.382   9.929  0.3627  0.0079 -0.0676
 3497SOL    HW111932   6.527   5.458   9.940 -0.9267 -1.1340  2.0582
 3497SOL    HW211933   6.660   5.415   9.883 -1.4455  1.9000 -1.9593
 3498SOL     OW11934   4.553   2.033  10.110 -0.2026  0.2148  0.1442
 3498SOL    HW111935   4.553   1.972  10.036  1.5517  1.6353 -1.1205
 3498SOL    HW211936   4.618   1.999  10.170 -0.2815  0.0600  0.1417
 3499SOL     OW11937   4.756   0.099   4.618  0.3243  0.3006  0.5030
 3499SOL    HW111938   4.698   0.038   4.572 -0.5107  0.9777  0.6360
 3499SOL    HW211939   4.796   0.047   4.687  0.1808 -0.2717  0.1616
 3500SOL     OW11940   3.069   7.783  11.509  0.2133 -1.0609  0.1661
 3500SOL    HW111941   3.125   7.751  11.579  0.0618 -1.1381  0.2540
 3500SOL    HW211942   3.129   7.823  11.446  0.6588 -3.3821 -0.9960
 3501SOL     OW11943   0.909   4.353   1.209  0.4428 -0.1869  0.4471
 3501SOL    HW111944   0.869   4.408   1.276  1.5073  2.5587 -0.9833
 3501SOL    HW211945   0.840   4.339   1.145 -0.1349 -1.5216  1.3128
 3502SOL     OW11946   2.929   0.840   7.750 -0.1380  0.2614 -0.2194
 3502SOL    HW111947   2.889   0.763   7.709 -0.5636 -0.1032  0.8372
 3502SOL    HW211948   3.022   0.832   7.731 -0.0613 -0.9809  0.5811
 3503SOL     OW11949   3.281   6.369  10.922 -0.0610 -0.0785  0.2753
 3503SOL    HW111950   3.255   6.291  10.971 -0.3158 -1.3325 -1.7275
 3503SOL    HW211951   3.349   6.410  10.976 -0.0012 -1.6216  1.4418
 3504SOL     OW11952   3.766   7.389   7.390 -0.8384 -0.0756 -0.2544
 3504SOL    HW111953   3.775   7.301   7.353  2.9210  0.5316 -1.1441
 3504SOL    HW211954   3.831   7.394   7.460 -0.0442  2.3314 -1.0506
 3505SOL     OW11955   0.524   1.233   0.200  0.1898  0.0667 -0.1410
 3505SOL    HW111956   0.503   1.171   0.269 -0.0635  0.1832 -0.1099
 3505SOL    HW211957   0.573   1.303   0.245  0.6459 -0.2013 -0.2121
 3506SOL     OW11958   7.824   7.327  11.312  0.5598  0.1900 -0.0859
 3506SOL    HW111959   7.826   7.393  11.242  1.6779 -1.1171 -1.3536
 3506SOL    HW211960   7.791   7.248  11.269  3.2560 -1.2417  0.2517
 3507SOL     OW11961   6.165   1.179   9.862 -0.2965  0.8879 -0.2729
 3507SOL    HW111962   6.112   1.215   9.791 -0.7770 -2.6252 -1.9307
 3507SOL    HW211963   6.107   1.118   9.907  1.4509 -0.8281 -0.2288
 3508SOL     OW11964   5.060   5.978   0.869  0.5378  0.4338 -0.1765
 3508SOL    HW111965   5.054   6.066   0.908  0.5761  0.3001  0.1359
 3508SOL    HW211966   5.151   5.953   0.881  1.2229  1.4610 -2.7261
 3509SOL     OW11967   7.575   1.714   2.438  0.0363  0.0326  0.2495
 3509SOL    HW111968   7.614   1.635   2.399 -0.5288 -0.1427  0.0398
 3509SOL    HW211969   7.494   1.683   2.477  0.5672  0.2069  1.5453
 3510SOL     OW11970   6.096   6.523   9.051  0.3831 -0.1872  0.0383
 3510SOL    HW111971   6.041   6.445   9.059  1.9710 -1.3588  0.1371
 3510SOL    HW211972   6.075   6.559   8.965  0.1238 -1.1330 -0.3012
 3511SOL     OW11973   2.222   4.261   8.177 -0.5413 -0.1310  0.2934
 3511SOL    HW111974   2.242   4.348   8.211 -1.2656  1.1095 -2.1968
 3511SOL    HW211975   2.267   4.257   8.093  0.3199 -2.6115  0.8086
 3512SOL     OW11976   7.435   7.748  11.210  0.1607  0.1858  0.4407
 3512SOL    HW111977   7.511   7.720  11.260  0.7741 -0.8074 -0.9760
 3512SOL    HW211978   7.362   7.740  11.270  0.8106 -1.3262  1.0827
 3513SOL     OW11979   2.216   2.500   8.909 -0.0303  0.0004 -0.4969
 3513SOL    HW111980   2.214   2.579   8.854 -1.1348 -0.7198 -1.5427
 3513SOL    HW211981   2.293   2.452   8.878  1.5328  1.2931  1.1421
 3514SOL     OW11982   7.657   5.304  11.439 -0.0512 -0.6743 -0.2199
 3514SOL    HW111983   7.740   5.313  11.393 -0.6842 -0.9753 -1.4616
 3514SOL    HW211984   7.637   5.392  11.469 -0.0226 -0.2977 -1.2611
 3515SOL     OW11985   7.421   7.037   3.746  0.8475  0.5091  0.2584
 3515SOL    HW111986   7.495   7.091   3.718  1.6144 -0.9722 -0.6684
 3515SOL    HW211987   7.399   6.985   3.669  0.5526 -0.9622  1.3016
 3516SOL     OW11988   1.127   0.793   9.240 -0.1658  0.5966 -0.1876
 3516SOL    HW111989   1.060   0.737   9.278 -1.9523  2.0192 -1.1091
 3516SOL    HW211990   1.158   0.746   9.163 -1.3241  0.6353 -0.6939
 3517SOL     OW11991   7.486   7.247   8.828  0.0926  0.4222 -0.2075
 3517SOL    HW111992   7.495   7.281   8.740  2.3469 -2.0696 -1.0746
 3517SOL    HW211993   7.437   7.165   8.818  1.4636 -0.5405  0.6165
 3518SOL     OW11994   3.476   7.445  11.692 -0.1896  0.6381  0.8041
 3518SOL    HW111995   3.406   7.380  11.687  0.1532  0.2736 -3.5204
 3518SOL    HW211996   3.556   7.394  11.703 -0.2121  0.6240  0.8991
 3519SOL     OW11997   4.628   1.237   3.354 -0.5765 -0.2443 -0.5094
 3519SOL    HW111998   4.693   1.167   3.342 -1.3587 -0.6608 -3.1252
 3519SOL    HW211999   4.677   1.308   3.395  0.9624 -1.3237 -0.3693
 3520SOL     OW12000   5.360   6.680   4.934  0.5559 -0.0843 -0.6599
 3520SOL    HW112001   5.377   6.669   4.841 -1.6874 -2.6247 -0.8698
 3520SOL    HW212002   5.418   6.617   4.977 -1.6996 -2.3777 -0.7711
 3521SOL     OW12003   6.217   2.266  11.095  0.0404 -0.3367 -0.0935
 3521SOL    HW112004   6.234   2.174  11.112  1.3623 -0.2703 -0.9117
 3521SOL    HW212005   6.295   2.312  11.128 -0.5274  0.4748  0.1611
 3522SOL     OW12006   0.585   0.535   8.873  0.2173 -0.3903 -0.0771
 3522SOL    HW112007   0.670   0.527   8.917 -0.3902 -2.3104  0.8570
 3522SOL    HW212008   0.523   0.494   8.933 -1.0071 -1.0520 -1.7179
 3523SOL     OW12009   6.664   6.555  11.968  0.3284 -0.0424 -0.4629
 3523SOL    HW112010   6.592   6.557  12.031  0.7672 -1.2930  0.1198
 3523SOL    HW212011   6.634   6.496  11.899  0.6525 -0.3106 -0.3794
 3524SOL     OW12012   6.331   3.352   6.870 -0.5934  0.5201 -0.9178
 3524SOL    HW112013   6.419   3.356   6.833  0.5987  0.3112  1.6887
 3524SOL    HW212014   6.312   3.441   6.899  0.7849 -0.1984  2.6565
 3525SOL     OW12015   3.009   6.496   3.277  0.1895 -0.4209  0.4133
 3525SOL    HW112016   3.056   6.495   3.361 -1.4957 -0.0425  1.3934
 3525SOL    HW212017   2.975   6.407   3.267 -0.6665 -0.1387  0.7589
 3526SOL     OW12018   5.041   2.671   3.111 -0.1511  0.0787 -0.1557
 3526SOL    HW112019   5.002   2.738   3.054 -0.8109  1.5199  1.8701
 3526SOL    HW212020   5.134   2.672   3.088 -0.4385  0.3724 -1.4192
 3527SOL     OW12021   6.183   6.119   1.175  0.0275  0.1937  0.2076
 3527SOL    HW112022   6.144   6.145   1.258 -0.7438  2.2320 -0.7314
 3527SOL    HW212023   6.254   6.181   1.161  1.5337 -1.4492  0.3227
 3528SOL     OW12024   3.499   6.000  10.475 -0.4540 -0.0401  0.3521
 3528SOL    HW112025   3.418   6.045  10.449 -0.3038  0.6805  1.0988
 3528SOL    HW212026   3.522   6.039  10.559  1.0225  0.2349 -0.1460
 3529SOL     OW12027   1.247   4.798   7.546  0.3910  0.0441 -0.1356
 3529SOL    HW112028   1.302   4.739   7.598  0.7093 -0.1728 -0.7078
 3529SOL    HW212029   1.210   4.859   7.610  0.9627 -0.0673  0.3097
 3530SOL     OW12030   1.463   1.854   5.896 -0.1753 -0.3549  0.5671
 3530SOL    HW112031   1.514   1.921   5.850  1.7621 -1.5691  0.8245
 3530SOL    HW212032   1.512   1.838   5.977 -1.0005 -1.5375  0.8567
 3531SOL     OW12033   7.486   7.671   3.378 -0.6498  0.0916  0.6898
 3531SOL    HW112034   7.521   7.606   3.439  1.0872  0.4870  0.1638
 3531SOL    HW212035   7.507   7.755   3.418  1.1723  0.3747 -0.7284
 3532SOL     OW12036   5.418   1.462   0.246 -0.4650 -0.5472  0.1148
 3532SOL    HW112037   5.342   1.479   0.301 -0.1859 -0.0206  0.3495
 3532SOL    HW212038   5.385   1.407   0.175 -1.0519 -0.3561  0.2378
 3533SOL     OW12039   3.774   0.349   8.904  0.0691 -0.1069  0.2802
 3533SOL    HW112040   3.727   0.275   8.942  2.6486 -1.3327  1.2931
 3533SOL    HW212041   3.808   0.397   8.979  1.4721 -0.0196 -0.3770
 3534SOL     OW12042   5.810   0.878   9.778 -0.0842 -0.4085  0.8562
 3534SOL    HW112043   5.776   0.822   9.708 -0.6051  0.3516  0.4894
 3534SOL    HW212044   5.892   0.836   9.804  1.5464  0.7417 -2.0845
 3535SOL     OW12045   6.478   4.849   9.245  0.5913 -0.0183 -0.1416
 3535SOL    HW112046   6.505   4.932   9.207  1.0126 -0.2622 -0.3871
 3535SOL    HW212047   6.411   4.815   9.185  1.3518 -0.4664 -0.7510
 3536SOL     OW12048   7.591   1.837  11.599  0.0485  0.3948  0.1784
 3536SOL    HW112049   7.500   1.866  11.611  0.1926  0.3631  1.4752
 3536SOL    HW212050   7.586   1.766  11.535 -0.9063  0.0395  0.6402
 3537SOL     OW12051   5.529   2.713  10.924 -0.5074 -0.0638 -0.3522
 3537SOL    HW112052   5.614   2.693  10.964 -0.0749 -0.0041 -1.2183
 3537SOL    HW212053   5.491   2.780  10.981  0.4712  0.6367 -0.4949
 3538SOL     OW12054   7.415   3.014   4.013  0.1191 -0.1308 -0.1573
 3538SOL    HW112055   7.475   2.960   4.066  1.1528  0.2810 -0.8944
 3538SOL    HW212056   7.425   3.102   4.048 -0.1868 -0.0805 -0.1908
 3539SOL     OW12057   0.105   0.692   6.156  0.2815  0.1010 -1.0259
 3539SOL    HW112058   0.095   0.781   6.191 -0.5087 -0.7392  1.0603
 3539SOL    HW212059   0.179   0.655   6.204  0.2545 -0.5405 -1.4640
 3540SOL     OW12060   0.844   5.243   1.059  0.1187 -0.5604  0.2083
 3540SOL    HW112061   0.755   5.263   1.089 -0.2608  0.1041 -1.2593
 3540SOL    HW212062   0.836   5.160   1.013 -0.1232  0.2906 -1.3678
 3541SOL     OW12063   7.866   5.677   8.631 -0.2668  0.5115  0.2720
 3541SOL    HW112064   7.888   5.741   8.563  0.2439  0.9974  0.8878
 3541SOL    HW212065   7.814   5.727   8.695 -0.7565  0.0540  0.2407
 3542SOL     OW12066   6.073   3.212   5.324  0.5038  0.3523  0.3434
 3542SOL    HW112067   5.987   3.200   5.285  0.0684  1.8949  0.7543
 3542SOL    HW212068   6.131   3.228   5.249  0.0520  1.2654  0.1751
 3543SOL     OW12069   1.493   0.202   0.348  0.1011 -0.3024  0.0317
 3543SOL    HW112070   1.558   0.173   0.283  0.5997 -1.0899  0.8550
 3543SOL    HW212071   1.424   0.243   0.296  0.7691 -0.3813 -0.9495
 3544SOL     OW12072   0.634   0.222   2.136 -0.9259 -0.1666 -0.6817
 3544SOL    HW112073   0.674   0.167   2.069 -0.8285  1.7704 -2.3235
 3544SOL    HW212074   0.708   0.254   2.188 -0.5436  1.3105 -2.0643
 3545SOL     OW12075   4.054   1.796  12.375  0.3268 -0.6472 -0.1448
 3545SOL    HW112076   4.106   1.855  12.320  1.8434  1.1939  3.0112
 3545SOL    HW212077   3.963   1.820  12.357  0.8490  1.1734 -0.5330
 3546SOL     OW12078   1.473   5.517   5.648 -0.4388  0.1053 -0.6207
 3546SOL    HW112079   1.445   5.550   5.563 -1.0798  0.2219 -0.3728
 3546SOL    HW212080   1.394   5.475   5.684 -0.4118  0.7813  0.2588
 3547SOL     OW12081   1.635   6.381   5.535 -0.1913  0.2491  0.1488
 3547SOL    HW112082   1.573   6.449   5.561  1.6826  2.2804 -0.4031
 3547SOL    HW212083   1.711   6.396   5.590  0.9425 -0.2149 -1.2314
 3548SOL     OW12084   6.324   3.363   0.768  0.4923  0.5680  0.4166
 3548SOL    HW112085   6.366   3.314   0.698  0.0490 -1.0399  1.2245
 3548SOL    HW212086   6.230   3.353   0.751  0.3148  3.5511 -0.9929
 3549SOL     OW12087   0.465   7.118   3.219 -0.3548 -0.0664 -0.2044
 3549SOL    HW112088   0.557   7.127   3.192  0.2687  0.3574  1.9115
 3549SOL    HW212089   0.418   7.182   3.166  0.9048  1.1857  0.1524
 3550SOL     OW12090   7.118   3.735   1.930  0.3163  0.0190  0.0121
 3550SOL    HW112091   7.182   3.667   1.948  1.3202  0.8310 -0.3915
 3550SOL    HW212092   7.098   3.772   2.016  0.4799 -0.1558  0.1271
 3551SOL     OW12093   6.619   2.944   8.961 -0.4757  0.3396  0.3188
 3551SOL    HW112094   6.613   2.878   8.893 -0.2119  0.2162  0.4146
 3551SOL    HW212095   6.528   2.962   8.985 -0.5204 -1.0589  1.3247
 3552SOL     OW12096   2.579   3.767   0.455 -0.5674  0.1194  0.5688
 3552SOL    HW112097   2.581   3.682   0.410  0.7684  1.3927 -2.0044
 3552SOL    HW212098   2.490   3.799   0.440 -0.4460  0.0736 -0.3030
 3553SOL     OW12099   3.997   3.003  12.287 -0.6241 -0.1456  0.0160
 3553SOL    HW112100   3.979   3.054  12.366 -2.3634 -0.7942  0.0968
 3553SOL    HW212101   3.941   2.926  12.295 -0.1376 -0.6917 -1.4110
 3554SOL     OW12102   3.406   6.754   8.325 -0.4381 -0.2719 -0.1842
 3554SOL    HW112103   3.447   6.768   8.411 -1.8220  1.4889  0.2571
 3554SOL    HW212104   3.312   6.761   8.342 -0.7196  0.8902 -1.9657
 3555SOL     OW12105   4.758   1.158   5.697 -0.3943  0.3120 -0.2160
 3555SOL    HW112106   4.736   1.138   5.606  0.6711 -0.0176 -0.4242
 3555SOL    HW212107   4.742   1.076   5.744 -0.7341  0.4174 -0.1484
 3556SOL     OW12108   3.052   1.789   9.415 -0.2341 -0.1530 -0.5104
 3556SOL    HW112109   3.045   1.826   9.503 -0.9763 -1.2658 -0.0805
 3556SOL    HW212110   3.139   1.749   9.413 -0.9865 -1.9231  0.4645
 3557SOL     OW12111   0.437   1.121  11.073 -0.6179 -0.3678 -0.2019
 3557SOL    HW112112   0.401   1.209  11.084 -0.0766 -0.0546 -0.8423
 3557SOL    HW212113   0.464   1.095  11.161  0.5280  0.7039 -0.2013
 3558SOL     OW12114   6.647   0.350   7.730 -0.2386 -0.2209  0.5314
 3558SOL    HW112115   6.724   0.303   7.698 -0.6292 -0.7292  0.3240
 3558SOL    HW212116   6.578   0.328   7.668 -0.7241 -0.3192  1.0991
 3559SOL     OW12117   3.736   0.854   0.690  0.8816  0.5714  0.2371
 3559SOL    HW112118   3.711   0.781   0.746  0.0887  0.4114 -0.3142
 3559SOL    HW212119   3.806   0.819   0.634 -0.4113 -0.1882 -0.9479
 3560SOL     OW12120   0.196   2.694   5.943  0.5846  0.2997  0.3659
 3560SOL    HW112121   0.184   2.737   5.858  1.1925  1.0833  0.6589
 3560SOL    HW212122   0.131   2.735   6.000  0.0376 -0.3735  0.2290
 3561SOL     OW12123   6.839   5.616  11.120 -0.1785 -0.1676 -0.0221
 3561SOL    HW112124   6.752   5.583  11.144 -0.2550 -0.3909 -0.5806
 3561SOL    HW212125   6.841   5.609  11.024  0.2850  0.2613 -0.0471
 3562SOL     OW12126   6.720   3.531  11.547  0.1670  0.6217  0.5739
 3562SOL    HW112127   6.693   3.439  11.545 -0.6898  0.8685 -0.9504
 3562SOL    HW212128   6.651   3.577  11.499  2.4258  1.5304 -2.1224
 3563SOL     OW12129   6.767   3.544  12.384  0.2843 -0.2822  0.8444
 3563SOL    HW112130   6.856   3.532  12.350 -0.2195  0.4684 -0.8114
 3563SOL    HW212131   6.780   3.597  12.463  1.4407 -1.7540  1.7144
 3564SOL     OW12132   1.293   2.338   4.572 -0.3193 -0.1484 -0.1317
 3564SOL    HW112133   1.221   2.399   4.587 -0.6318 -0.7386  0.8815
 3564SOL    HW212134   1.302   2.334   4.476 -0.4322  1.2903 -0.2113
 3565SOL     OW12135   4.695   6.111   5.973  0.1829  0.0448 -0.0565
 3565SOL    HW112136   4.682   6.035   6.030  0.2628 -1.1078 -1.5216
 3565SOL    HW212137   4.736   6.177   6.030  0.4516 -1.1275  1.1567
 3566SOL     OW12138   2.923   2.639   2.906 -0.4492 -0.0254  0.3925
 3566SOL    HW112139   2.957   2.658   2.819 -1.5525 -1.4806 -0.4050
 3566SOL    HW212140   2.948   2.547   2.922 -3.1335 -0.8640  0.1424
 3567SOL     OW12141   2.675   6.141   0.854 -0.2338  0.1638 -0.6688
 3567SOL    HW112142   2.759   6.101   0.829 -0.1928 -0.2952  0.1638
 3567SOL    HW212143   2.638   6.080   0.918 -0.8125  0.7816 -0.4066
 3568SOL     OW12144   2.553   4.957   3.370  0.3853  0.1606  0.3091
 3568SOL    HW112145   2.554   5.043   3.411 -0.0649 -0.4950  1.7719
 3568SOL    HW212146   2.560   4.974   3.276  1.5756  1.7157  0.6509
 3569SOL     OW12147   5.544   5.385  11.359 -0.0146  0.3657 -0.2423
 3569SOL    HW112148   5.542   5.428  11.273  0.1056  0.5046 -0.1756
 3569SOL    HW212149   5.484   5.437  11.413  0.0029  0.3509 -0.2078
 3570SOL     OW12150   1.855   6.963   4.667 -0.4454 -0.0994  0.2142
 3570SOL    HW112151   1.927   6.943   4.727  1.1703  0.1635 -1.5410
 3570SOL    HW212152   1.813   6.878   4.651  0.8231 -0.6336 -0.3769
 3571SOL     OW12153   5.085   5.376   2.429  0.1907  0.1904 -0.1764
 3571SOL    HW112154   5.125   5.336   2.506  1.6290 -0.0450 -1.0118
 3571SOL    HW212155   5.143   5.450   2.408  0.4907 -0.4478 -1.7075
 3572SOL     OW12156   3.043   6.309  11.274  0.4214  0.1737 -0.8023
 3572SOL    HW112157   3.132   6.335  11.297  0.5773  0.2518 -1.4678
 3572SOL    HW212158   3.003   6.389  11.239 -0.9316  0.9960  2.2761
 3573SOL     OW12159   4.531   6.496   8.636  0.9700 -0.0164 -0.3677
 3573SOL    HW112160   4.499   6.538   8.556  1.1995  0.9823  0.0467
 3573SOL    HW212161   4.521   6.563   8.704  1.3500 -0.6375  0.3180
 3574SOL     OW12162   3.157   3.479  11.033  0.4272  0.1912 -0.3046
 3574SOL    HW112163   3.181   3.437  10.950  2.5670  1.9288 -0.6728
 3574SOL    HW212164   3.062   3.487  11.029  0.1927 -2.2969 -1.2827
 3575SOL     OW12165   6.627   5.333  11.436 -0.3865  0.3863  0.2843
 3575SOL    HW112166   6.636   5.348  11.530 -0.4008 -0.4471  0.4211
 3575SOL    HW212167   6.606   5.240  11.428 -1.1219  0.6105 -0.4989
 3576SOL     OW12168   6.246   7.608   3.189  0.2092 -0.2830 -0.0196
 3576SOL    HW112169   6.338   7.636   3.197  0.7088 -2.1372  1.2153
 3576SOL    HW212170   6.245   7.518   3.222 -2.2947  0.1171  1.2029
 3577SOL     OW12171   4.804   7.681   0.218 -0.1193 -0.2680  0.3157
 3577SOL    HW112172   4.745   7.754   0.199  0.5051  0.2736  0.4117
 3577SOL    HW212173   4.881   7.698   0.164 -0.1624 -1.1183 -0.0189
 3578SOL     OW12174   4.132   1.352   6.612  0.0817  0.5106 -0.2654
 3578SOL    HW112175   4.098   1.342   6.700  1.3280 -1.3942  0.0573
 3578SOL    HW212176   4.078   1.293   6.559  2.2850 -2.1121  0.1573
 3579SOL     OW12177   7.028   5.121   2.407 -0.0137  0.3766 -0.4469
 3579SOL    HW112178   6.978   5.088   2.481  1.8705  1.2226  1.2856
 3579SOL    HW212179   7.009   5.215   2.404 -0.1314  0.3368 -1.0895
 3580SOL     OW12180   7.379   6.972   4.861 -0.3475  0.1421  0.6052
 3580SOL    HW112181   7.453   6.911   4.854 -1.2800 -0.8330 -1.7132
 3580SOL    HW212182   7.314   6.925   4.914 -1.6646 -1.6933 -2.3771
 3581SOL     OW12183   2.904   1.720   2.792 -0.2303 -0.4925 -0.3736
 3581SOL    HW112184   2.875   1.713   2.883 -0.4624  0.2241 -0.3845
 3581SOL    HW212185   2.997   1.744   2.799  0.0362 -1.4680 -0.3388
 3582SOL     OW12186   6.435   2.486   3.552 -0.0127 -0.3528 -0.4653
 3582SOL    HW112187   6.496   2.560   3.560 -0.1029 -0.1532 -1.5320
 3582SOL    HW212188   6.374   2.498   3.624 -0.2063  0.7933 -0.7985
 3583SOL     OW12189   6.572   4.570   0.190 -0.4073 -1.0352  0.3056
 3583SOL    HW112190   6.582   4.660   0.218 -1.0970 -0.7162 -0.4444
 3583SOL    HW212191   6.651   4.526   0.223  0.8718  0.2410 -0.9030
 3584SOL     OW12192   7.610   4.188   0.019 -0.3044 -0.0488  0.4473
 3584SOL    HW112193   7.626   4.161   0.109 -0.0167  0.8653  0.6849
 3584SOL    HW212194   7.691   4.166  -0.027 -0.0213  0.4956  0.6688
 3585SOL     OW12195   7.128   6.804   2.656  0.4781 -0.3265  0.4558
 3585SOL    HW112196   7.135   6.789   2.751  2.1244  0.2480  0.4653
 3585SOL    HW212197   7.138   6.717   2.617 -2.2526 -0.8909  0.8103
 3586SOL     OW12198   5.682   3.743  11.829  0.2269 -0.0770  0.5655
 3586SOL    HW112199   5.733   3.702  11.898  1.7527  1.5689  0.4912
 3586SOL    HW212200   5.686   3.837  11.848 -1.4486  0.2161 -0.3539
 3587SOL     OW12201   6.170   2.588   7.092  0.0455 -0.7441  0.0033
 3587SOL    HW112202   6.158   2.558   7.002 -1.7703 -0.3599  0.0763
 3587SOL    HW212203   6.198   2.509   7.140  0.2740 -1.1262 -0.7504
 3588SOL     OW12204   1.339   0.745   7.236  0.1514  0.3198 -0.1048
 3588SOL    HW112205   1.294   0.743   7.151 -1.1752 -0.2352  0.5729
 3588SOL    HW212206   1.293   0.680   7.288  1.1807  0.4082  0.9378
 3589SOL     OW12207   2.442   5.374  11.973 -0.1287 -0.1207 -0.1983
 3589SOL    HW112208   2.424   5.382  12.067  0.0705  2.2699 -0.2780
 3589SOL    HW212209   2.418   5.460  11.938  0.6385 -0.6793 -2.1855
 3590SOL     OW12210   5.233   2.751   0.090  0.1512  0.0254 -0.5064
 3590SOL    HW112211   5.303   2.687   0.103  0.0366 -0.0089 -0.0389
 3590SOL    HW212212   5.199   2.732   0.003  1.3753  0.6832 -1.1518
 3591SOL     OW12213   0.852   6.139   5.738  0.0835 -0.6655  0.3676
 3591SOL    HW112214   0.887   6.057   5.703  0.5587  0.1062 -1.0639
 3591SOL    HW212215   0.854   6.199   5.663 -0.3395  0.6235  1.3608
 3592SOL     OW12216   6.994   5.959   9.385  0.4922 -0.2115 -0.2862
 3592SOL    HW112217   6.991   5.866   9.405 -1.0369  0.1745  1.5046
 3592SOL    HW212218   6.917   5.996   9.428 -0.2703  1.5374 -2.9245
 3593SOL     OW12219   7.758   1.663   6.787  0.9187  0.3000 -0.0508
 3593SOL    HW112220   7.699   1.658   6.712  0.1616  0.9664  0.4797
 3593SOL    HW212221   7.769   1.757   6.802  2.3402  0.1897 -0.2992
 3594SOL     OW12222   2.857   2.318   6.529  0.4548 -0.0536  0.3601
 3594SOL    HW112223   2.835   2.408   6.502 -1.9071 -0.5354  0.4429
 3594SOL    HW212224   2.878   2.273   6.447 -0.4851  0.0531  0.0472
 3595SOL     OW12225   0.380   3.681   6.626 -0.0176  0.2054 -0.1161
 3595SOL    HW112226   0.456   3.636   6.660  0.8263 -1.1337 -3.3523
 3595SOL    HW212227   0.410   3.771   6.611  0.8901 -0.2393 -1.0935
 3596SOL     OW12228   3.896   6.648   1.689  0.3422  0.0335  0.3835
 3596SOL    HW112229   3.829   6.715   1.691  0.5757  0.4264 -2.0217
 3596SOL    HW212230   3.975   6.691   1.722 -0.0978  0.1856  1.2387
 3597SOL     OW12231   1.984   0.716   0.584  0.0987  0.2232  0.9555
 3597SOL    HW112232   1.902   0.675   0.615 -0.2265  1.8255  2.3479
 3597SOL    HW212233   1.982   0.703   0.490 -1.3940 -0.4480  1.0364
 3598SOL     OW12234   1.061   7.041   1.630 -0.1534 -0.3414  0.3816
 3598SOL    HW112235   1.089   7.120   1.676 -2.1742 -0.1145  1.3116
 3598SOL    HW212236   1.035   6.980   1.699 -0.9164 -0.9146 -0.3949
 3599SOL     OW12237   3.076   5.507   0.186 -0.0478 -0.4488  0.2247
 3599SOL    HW112238   3.113   5.449   0.253 -1.3476 -0.5350  0.9074
 3599SOL    HW212239   3.042   5.447   0.119 -0.1183 -0.4231  0.2373
 3600SOL     OW12240   3.980   3.529  11.293 -0.4009  0.0377 -0.1372
 3600SOL    HW112241   3.956   3.437  11.304 -2.2104  0.1811 -2.1590
 3600SOL    HW212242   3.936   3.574  11.364  1.3320 -0.6992  1.4948
 3601SOL     OW12243   3.805   3.315   4.314 -0.4910 -1.0542  0.2228
 3601SOL    HW112244   3.897   3.298   4.335  0.0077  1.4451  0.4496
 3601SOL    HW212245   3.800   3.302   4.219  0.7164  0.8394 -0.1736
 3602SOL     OW12246   5.415   3.377   5.924  0.2749 -0.1268  0.0788
 3602SOL    HW112247   5.343   3.417   5.875  1.7724  1.0719 -1.2743
 3602SOL    HW212248   5.420   3.429   6.005 -0.3630 -0.2014  0.1692
 3603SOL     OW12249   0.918   4.661   8.639 -0.2512  0.2196 -0.8676
 3603SOL    HW112250   0.929   4.616   8.555  1.2025 -1.0264 -0.0702
 3603SOL    HW212251   0.842   4.619   8.679  0.0201 -0.3051 -0.8916
 3604SOL     OW12252   0.750   0.532   7.152  0.1022 -0.3050 -0.2279
 3604SOL    HW112253   0.806   0.493   7.219  0.7713  0.2492 -0.4596
 3604SOL    HW212254   0.771   0.484   7.072  0.8792  0.4623 -0.4994
 3605SOL     OW12255   1.045   1.643   6.106 -0.0050  0.0924 -0.7064
 3605SOL    HW112256   1.008   1.715   6.056  0.2765  2.7933  2.6052
 3605SOL    HW212257   0.972   1.583   6.121 -0.4772  0.1183 -2.7082
 3606SOL     OW12258   0.948   4.494  11.399 -0.1190  0.0154  0.5848
 3606SOL    HW112259   0.950   4.410  11.353  1.0610 -0.2441  1.0704
 3606SOL    HW212260   1.017   4.486  11.465  0.2071  1.4846  0.4406
 3607SOL     OW12261   6.664   3.395   9.483 -0.3307 -0.2811 -0.2171
 3607SOL    HW112262   6.568   3.393   9.487 -0.3446 -0.2805 -0.6026
 3607SOL    HW212263   6.686   3.353   9.400 -0.1035  2.3993 -1.6129
 3608SOL     OW12264   5.945   0.616   7.466 -0.2983  0.1545 -0.5958
 3608SOL    HW112265   5.983   0.534   7.495 -0.4820 -0.1748 -1.2609
 3608SOL    HW212266   6.020   0.671   7.444 -0.0980  0.9348  1.7977
 3609SOL     OW12267   1.794   5.730   8.484 -0.5112  0.3550 -1.0762
 3609SOL    HW112268   1.846   5.677   8.423 -0.3030  0.6978 -1.1970
 3609SOL    HW212269   1.712   5.682   8.493  0.2027 -0.7452 -0.0724
 3610SOL     OW12270   7.542   4.175  10.452 -0.3696  0.1584  0.1181
 3610SOL    HW112271   7.602   4.250  10.453 -0.1920  0.0192  0.2205
 3610SOL    HW212272   7.597   4.102  10.480 -0.3547 -0.1542 -0.7136
 3611SOL     OW12273   4.068   5.989   8.204 -0.2643  0.4219  0.0274
 3611SOL    HW112274   4.150   6.000   8.157  0.7133  1.8903  1.9129
 3611SOL    HW212275   4.004   6.040   8.154  0.1852  0.0788 -0.9156
 3612SOL     OW12276   4.399   7.733   9.804 -0.0958 -0.4172  0.0107
 3612SOL    HW112277   4.481   7.779   9.785 -0.5147 -0.1059 -1.1852
 3612SOL    HW212278   4.360   7.781   9.877  0.3392  0.0286 -0.0460
 3613SOL     OW12279   5.330   3.478   2.671  0.4074  0.2474 -0.9207
 3613SOL    HW112280   5.296   3.415   2.734 -0.1384  0.2606 -1.1978
 3613SOL    HW212281   5.283   3.559   2.691 -0.5958 -0.0283 -2.0545
 3614SOL     OW12282   3.610   5.892   3.660 -0.3670  0.2321 -0.5229
 3614SOL    HW112283   3.647   5.809   3.632 -0.0424  0.3203 -0.3621
 3614SOL    HW212284   3.684   5.953   3.660 -0.8179  0.8199 -1.7824
 3615SOL     OW12285   6.775   7.140   9.236  0.4342 -0.0009 -0.4744
 3615SOL    HW112286   6.719   7.077   9.192  0.4805 -0.7753  0.5325
 3615SOL    HW212287   6.753   7.224   9.195 -0.9370 -0.3940 -0.6047
 3616SOL     OW12288   4.389   1.795   8.707 -0.0791  0.1089  0.1375
 3616SOL    HW112289   4.412   1.728   8.771  1.4651  0.5427  0.0977
 3616SOL    HW212290   4.339   1.750   8.640  1.0136 -1.0340  0.0610
 3617SOL     OW12291   3.694   1.827   7.542  0.0981  0.2812 -0.3459
 3617SOL    HW112292   3.725   1.793   7.458 -1.3288 -1.1459 -0.3320
 3617SOL    HW212293   3.767   1.814   7.601 -0.6167 -3.8312 -0.0920
 3618SOL     OW12294   7.685   6.110   8.412 -0.2380  0.3638 -0.2004
 3618SOL    HW112295   7.637   6.031   8.438 -0.1212 -0.1343 -1.4050
 3618SOL    HW212296   7.616   6.172   8.387 -0.3745  1.0620  1.7842
 3619SOL     OW12297   4.001   4.007   9.282 -0.5420 -0.2016  0.1918
 3619SOL    HW112298   4.003   3.917   9.250 -0.3773  0.5569 -2.1365
 3619SOL    HW212299   3.920   4.013   9.332 -1.8672 -1.0418 -1.7136
 3620SOL     OW12300   4.325   1.634  11.404  0.2592 -0.3596 -0.0986
 3620SOL    HW112301   4.379   1.559  11.428 -0.2230 -1.1340 -1.3516
 3620SOL    HW212302   4.354   1.657  11.315 -0.0046  0.5794  0.0407
 3621SOL     OW12303   0.338   0.581   9.262  0.6802  0.2147 -0.5680
 3621SOL    HW112304   0.341   0.619   9.175 -0.5419 -0.5672 -0.9785
 3621SOL    HW212305   0.329   0.655   9.321 -2.9198  0.6045 -1.4186
 3622SOL     OW12306   5.253   3.441   8.144  0.1785  0.1926 -0.8079
 3622SOL    HW112307   5.213   3.358   8.116  1.8845 -0.3852 -1.6759
 3622SOL    HW212308   5.311   3.416   8.215 -1.0954  1.0549  0.5811
 3623SOL     OW12309   3.808   6.345   5.641  0.1256  0.1776  0.0423
 3623SOL    HW112310   3.868   6.299   5.699  0.4617  0.6070  0.0404
 3623SOL    HW212311   3.859   6.363   5.562  0.3281  1.4279  0.4262
 3624SOL     OW12312   7.245   5.569   6.932  0.0271  0.0491 -0.3097
 3624SOL    HW112313   7.215   5.660   6.936 -0.7946 -0.1935 -0.7004
 3624SOL    HW212314   7.207   5.534   6.851  1.8600 -0.1295 -1.1419
 3625SOL     OW12315   1.296   4.674   3.071  0.3543 -0.5150  0.2682
 3625SOL    HW112316   1.347   4.701   3.147 -0.6929  1.2291  0.4158
 3625SOL    HW212317   1.339   4.718   2.997 -1.2504  1.5881  0.4848
 3626SOL     OW12318   7.812   7.880   0.134  0.2073 -1.6945 -0.2941
 3626SOL    HW112319   7.887   7.893   0.077 -0.5405  3.7521 -0.5731
 3626SOL    HW212320   7.844   7.901   0.222 -0.8339  1.1065 -0.4690
 3627SOL     OW12321   2.705   4.120   2.278 -0.4950  0.3485 -0.0865
 3627SOL    HW112322   2.756   4.061   2.224  1.0964  2.0605 -0.5701
 3627SOL    HW212323   2.659   4.063   2.340  3.3494 -1.2678  1.5445
 3628SOL     OW12324   1.708   0.604   5.890  0.2391 -0.8227 -0.3110
 3628SOL    HW112325   1.798   0.607   5.921  0.7132 -1.8761 -1.4885
 3628SOL    HW212326   1.697   0.684   5.839 -0.0203  0.0851  1.1104
 3629SOL     OW12327   4.266   6.589  10.613 -0.6194 -0.3273  0.4237
 3629SOL    HW112328   4.217   6.535  10.675  0.4686 -3.4617 -1.2772
 3629SOL    HW212329   4.225   6.572  10.528  1.2596 -0.3527 -0.5150
 3630SOL     OW12330   5.613   4.704  10.371 -0.3606  0.4158  0.5851
 3630SOL    HW112331   5.539   4.753  10.406 -0.1780  2.1931 -1.2860
 3630SOL    HW212332   5.688   4.762  10.383  0.4161 -0.6180  0.8604
 3631SOL     OW12333   4.782   1.208   9.158  0.4304  0.3542  0.3882
 3631SOL    HW112334   4.760   1.143   9.091  2.0937  1.0106 -0.8555
 3631SOL    HW212335   4.828   1.157   9.226 -2.3982 -0.5570  1.7946
 3632SOL     OW12336   0.198   1.200   0.534 -0.1198 -0.2489  0.5744
 3632SOL    HW112337   0.140   1.248   0.476  1.6589  1.2048 -0.1075
 3632SOL    HW212338   0.188   1.108   0.508 -1.6602  0.0257  0.1253
 3633SOL     OW12339   3.510   3.129   0.745 -0.2563 -0.2490 -0.0373
 3633SOL    HW112340   3.459   3.127   0.664  1.7547  1.5146 -1.4702
 3633SOL    HW212341   3.598   3.099   0.719  0.2374 -0.4367  1.6932
 3634SOL     OW12342   7.896   6.420   2.765 -0.8098  0.7133  0.5333
 3634SOL    HW112343   7.837   6.496   2.769 -2.2031 -0.3470  0.8768
 3634SOL    HW212344   7.911   6.406   2.672 -0.5593  1.3966  0.4659
 3635SOL     OW12345   7.475   3.156   4.369  0.8334  0.5365  0.1371
 3635SOL    HW112346   7.390   3.135   4.408  0.5584  0.5629 -0.4485
 3635SOL    HW212347   7.455   3.193   4.284  1.4016  1.4146  0.3706
 3636SOL     OW12348   5.027   6.030  10.603 -0.4176  0.6769 -0.3961
 3636SOL    HW112349   5.012   6.049  10.510  0.0828 -1.0038 -0.8417
 3636SOL    HW212350   5.065   5.943  10.604  0.7260  1.1546  1.3218
 3637SOL     OW12351   1.917   7.476   1.746  0.4945 -0.1562 -0.0562
 3637SOL    HW112352   1.971   7.460   1.823  0.3714  0.1943  0.1051
 3637SOL    HW212353   1.899   7.570   1.748  0.3193 -0.1803 -0.3981
 3638SOL     OW12354   0.013   2.835   7.326 -0.5294  0.1425  0.3389
 3638SOL    HW112355  -0.037   2.781   7.266 -1.2522 -0.0193  1.0682
 3638SOL    HW212356   0.040   2.775   7.396  1.9860 -0.1232 -0.7494
 3639SOL     OW12357   3.114   2.555   6.029  0.4922 -0.0408  0.1252
 3639SOL    HW112358   3.207   2.576   6.032  1.1931 -2.8447  0.5599
 3639SOL    HW212359   3.111   2.461   6.012 -2.1871 -0.5264  2.4484
 3640SOL     OW12360   6.755   4.375   7.031 -0.3908 -0.5244  0.1906
 3640SOL    HW112361   6.744   4.348   7.122  3.0978 -1.8519  0.3604
 3640SOL    HW212362   6.847   4.398   7.024 -0.7904  0.5986 -2.7985
 3641SOL     OW12363   4.090   0.049   2.204  0.5505 -0.0594  0.4625
 3641SOL    HW112364   4.020   0.059   2.140  0.2293 -2.7540  0.2763
 3641SOL    HW212365   4.045   0.030   2.286  1.0360  0.9754  0.9948
 3642SOL     OW12366   1.744   3.775   1.476  0.2741  0.1216 -0.1261
 3642SOL    HW112367   1.797   3.838   1.426  1.3924 -0.5893  0.1474
 3642SOL    HW212368   1.769   3.690   1.443  0.5302 -0.3302  1.1631
 3643SOL     OW12369   3.730   7.377   2.314  0.2611 -0.3744  0.5325
 3643SOL    HW112370   3.787   7.418   2.249 -1.9021  1.4983 -0.2966
 3643SOL    HW212371   3.719   7.444   2.381 -2.3280  0.0276 -0.2063
 3644SOL     OW12372   3.073   1.627   4.504  0.4740 -0.1967 -0.1887
 3644SOL    HW112373   3.001   1.680   4.469  1.4084  0.4987 -1.1299
 3644SOL    HW212374   3.032   1.570   4.569 -1.0242 -0.2443 -1.1382
 3645SOL     OW12375   6.089   4.888   2.176  0.1088 -0.3794 -0.2343
 3645SOL    HW112376   5.998   4.858   2.187  0.3153 -1.1590 -0.5997
 3645SOL    HW212377   6.099   4.899   2.082  0.5871 -0.9485 -0.2573
 3646SOL     OW12378   3.678   6.955   3.435 -0.1999  0.4516 -0.0816
 3646SOL    HW112379   3.718   6.868   3.427 -1.1445 -0.1159  1.0281
 3646SOL    HW212380   3.708   6.986   3.521 -2.4072 -0.1740  0.9877
 3647SOL     OW12381   5.957   1.365  12.084  0.4488  0.1182 -0.0059
 3647SOL    HW112382   6.017   1.293  12.068  2.7271  1.7905  0.4568
 3647SOL    HW212383   5.997   1.440  12.041 -3.0703  0.7416 -2.6328
 3648SOL     OW12384   7.916   2.818   0.671  0.1833  0.4046 -0.2329
 3648SOL    HW112385   7.985   2.772   0.624  1.4793  0.2849  1.6692
 3648SOL    HW212386   7.842   2.758   0.670  0.7855 -0.3436 -0.5654
 3649SOL     OW12387   5.919   7.124  11.366 -0.3870 -0.1238 -0.3420
 3649SOL    HW112388   6.009   7.156  11.369 -0.7464  0.8464  0.4947
 3649SOL    HW212389   5.889   7.143  11.277 -0.1634  0.6633 -0.2536
 3650SOL     OW12390   5.670   7.864   7.254 -0.2084 -0.3355 -0.3218
 3650SOL    HW112391   5.669   7.902   7.167 -2.1814 -2.0495 -1.1258
 3650SOL    HW212392   5.579   7.838   7.270  0.3298 -1.1391  1.7674
 3651SOL     OW12393   0.071   7.018   3.829  0.2534  0.1440 -0.0641
 3651SOL    HW112394   0.042   6.974   3.750  0.5816 -0.4611  0.1430
 3651SOL    HW212395   0.164   6.994   3.837  0.2551  0.3017  0.4326
 3652SOL     OW12396   3.441   7.105   5.266  0.1895  0.3861 -0.1151
 3652SOL    HW112397   3.436   7.195   5.234  0.3302  1.5670  2.9423
 3652SOL    HW212398   3.361   7.064   5.233 -1.5251  2.5812  1.0177
 3653SOL     OW12399   3.000   2.920   2.288 -0.2974  0.1728 -0.0766
 3653SOL    HW112400   3.021   2.836   2.248  2.2184  0.5641  0.2390
 3653SOL    HW212401   2.961   2.972   2.218 -1.3810 -1.0442 -0.4044
 3654SOL     OW12402   6.733   6.860   1.684  0.0279 -0.5195  0.2505
 3654SOL    HW112403   6.642   6.829   1.681 -0.6949  1.5103 -0.1706
 3654SOL    HW212404   6.745   6.891   1.774 -0.0800  0.2599  0.0022
 3655SOL     OW12405   0.201   7.830   1.126 -0.1329 -0.0156  0.0518
 3655SOL    HW112406   0.230   7.741   1.145  0.0444 -0.0836 -0.5324
 3655SOL    HW212407   0.259   7.860   1.056  0.3553  0.8537  0.7973
 3656SOL     OW12408   3.815   7.762   6.419 -0.0483  0.1608  0.3385
 3656SOL    HW112409   3.734   7.765   6.368 -0.9527  0.1796  1.7222
 3656SOL    HW212410   3.883   7.740   6.355 -1.1631 -0.0184 -0.8262
 3657SOL     OW12411   2.272   3.814  10.518  0.0951  0.6110 -0.6696
 3657SOL    HW112412   2.346   3.872  10.537  0.6311  0.0194 -0.9281
 3657SOL    HW212413   2.303   3.727  10.542 -0.3847  0.3031 -1.1432
 3658SOL     OW12414   6.098   3.525  11.156 -0.1350  0.0642 -0.2778
 3658SOL    HW112415   6.049   3.562  11.083  2.1896  1.1513 -1.3732
 3658SOL    HW212416   6.163   3.468  11.115  0.3534 -0.3515  1.0273
 3659SOL     OW12417   7.379   7.001   5.784 -0.1243 -0.8291 -0.5373
 3659SOL    HW112418   7.297   7.030   5.745 -0.4327 -1.0438 -0.0614
 3659SOL    HW212419   7.446   7.052   5.739 -0.5771 -0.1030 -0.4069
 3660SOL     OW12420   0.470   3.337   3.857  0.1297 -0.0805 -0.8861
 3660SOL    HW112421   0.462   3.276   3.784 -0.1822 -1.7114  0.4405
 3660SOL    HW212422   0.555   3.379   3.844  1.2844 -2.2417 -0.8610
 3661SOL     OW12423   3.895   3.273  10.799  0.1585 -0.2756 -0.0010
 3661SOL    HW112424   3.925   3.187  10.768  0.5224  0.2095 -1.0520
 3661SOL    HW212425   3.954   3.335  10.755 -0.1770  0.5141  0.6580
 3662SOL     OW12426   5.231   1.604   0.922 -0.2365 -0.0393  0.0354
 3662SOL    HW112427   5.147   1.577   0.886 -0.9965  0.1857  1.5598
 3662SOL    HW212428   5.236   1.560   1.007  2.7270 -2.8385 -1.3313
 3663SOL     OW12429   0.986   0.686   7.697 -0.5601  0.1266 -0.7934
 3663SOL    HW112430   0.934   0.692   7.777  1.1367 -0.4771  0.3954
 3663SOL    HW212431   0.968   0.597   7.664 -0.4304 -0.0135 -0.4907
 3664SOL     OW12432   1.215   2.441   0.923  0.1115 -0.2364  0.2127
 3664SOL    HW112433   1.300   2.397   0.924  0.3899  0.2566 -0.6919
 3664SOL    HW212434   1.233   2.529   0.956 -0.1140 -0.2531  0.3786
 3665SOL     OW12435   7.724   3.333  12.256 -0.1207 -0.1402  0.1909
 3665SOL    HW112436   7.703   3.241  12.239  2.2992 -1.1754  2.2829
 3665SOL    HW212437   7.783   3.358  12.185 -1.8453  0.3088 -1.1591
 3666SOL     OW12438   0.281   2.216  10.676  0.6068  0.1525 -0.0427
 3666SOL    HW112439   0.186   2.207  10.674  0.6666 -0.6084  0.2195
 3666SOL    HW212440   0.305   2.238  10.586  0.2109  0.0442 -0.1769
 3667SOL     OW12441   3.362   0.399   7.593  0.2859 -0.5879 -0.6939
 3667SOL    HW112442   3.346   0.326   7.532 -0.7819  0.7182 -2.0503
 3667SOL    HW212443   3.299   0.466   7.566  2.7672  1.7680 -1.0139
 3668SOL     OW12444   3.522   3.115   3.152  0.6128 -0.5952  0.1835
 3668SOL    HW112445   3.477   3.053   3.094  0.3166 -1.5441  1.3883
 3668SOL    HW212446   3.453   3.173   3.184  0.9963  0.8753 -1.5019
 3669SOL     OW12447   0.463   4.994  11.321  0.4612  0.2824 -0.8755
 3669SOL    HW112448   0.481   4.956  11.235  0.3027  1.5244 -1.4757
 3669SOL    HW212449   0.541   4.973  11.373 -0.2462 -2.1632 -0.6786
 3670SOL     OW12450   0.937   7.701   2.889  0.2185  0.3897  0.7327
 3670SOL    HW112451   0.846   7.673   2.904  0.6619 -0.0483  2.9648
 3670SOL    HW212452   0.966   7.733   2.975  2.2977  0.1419  0.1626
 3671SOL     OW12453   0.989   1.820  11.824 -0.3763 -0.5048 -0.9585
 3671SOL    HW112454   1.061   1.847  11.767  0.3226 -0.8087 -0.2384
 3671SOL    HW212455   0.979   1.893  11.885 -0.2742 -0.7125 -0.6899
 3672SOL     OW12456   0.263   3.351   7.811  0.1699  0.0319  0.4420
 3672SOL    HW112457   0.225   3.372   7.726  1.4224  1.0061  0.0804
 3672SOL    HW212458   0.270   3.436   7.856  1.1925 -0.2022  0.7683
 3673SOL     OW12459   7.158   4.990  12.276  0.3275  0.5789 -0.0731
 3673SOL    HW112460   7.249   4.960  12.285  0.5858  1.3076 -0.1501
 3673SOL    HW212461   7.122   4.983  12.364  0.5161  0.4597 -0.0039
 3674SOL     OW12462   2.412   2.527   3.549  0.3517 -0.2072 -0.2958
 3674SOL    HW112463   2.463   2.608   3.552 -1.2832  0.9158 -1.3898
 3674SOL    HW212464   2.432   2.483   3.632  2.4400  0.5607 -0.3570
 3675SOL     OW12465   1.777   6.793   4.288  0.0941 -0.7764 -0.2126
 3675SOL    HW112466   1.856   6.791   4.342 -0.7426 -2.7979  1.0479
 3675SOL    HW212467   1.753   6.886   4.284  2.7952 -0.0159 -1.1419
 3676SOL     OW12468   2.894   5.064   7.810  0.5352  0.0302 -0.4619
 3676SOL    HW112469   2.957   4.996   7.836  0.6989  1.3541  3.2917
 3676SOL    HW212470   2.810   5.032   7.843  0.2989  0.7871 -0.3064
 3677SOL     OW12471   3.553   7.423   6.182 -0.1611 -0.7116  0.3927
 3677SOL    HW112472   3.511   7.445   6.099 -0.1402 -0.0752  0.5466
 3677SOL    HW212473   3.484   7.430   6.247 -0.0990 -0.8810  0.4794
 3678SOL     OW12474   5.415   2.447   3.642 -0.0994  0.2471  0.0024
 3678SOL    HW112475   5.392   2.386   3.713 -2.1222  0.4840 -0.3827
 3678SOL    HW212476   5.372   2.410   3.565  0.5428  0.9687 -0.7150
 3679SOL     OW12477   6.743   2.720  12.330 -0.3479 -0.1754 -0.3034
 3679SOL    HW112478   6.691   2.649  12.291 -0.5091 -0.1626 -0.1130
 3679SOL    HW212479   6.750   2.785  12.260 -0.9314  0.0003 -0.2091
 3680SOL     OW12480   3.251   2.659   8.504 -0.1949  0.1196 -0.3193
 3680SOL    HW112481   3.292   2.643   8.419 -1.7062  1.2347 -1.3072
 3680SOL    HW212482   3.165   2.619   8.497  0.5834 -2.1199  1.7035
 3681SOL     OW12483   1.842   5.824   0.987 -0.1193  0.4540 -0.6419
 3681SOL    HW112484   1.788   5.872   1.049 -1.1916 -1.4901  0.0079
 3681SOL    HW212485   1.793   5.827   0.905  0.8835  2.2826 -1.2277
 3682SOL     OW12486   0.943   6.065   4.877 -0.5109  0.2223 -0.4230
 3682SOL    HW112487   0.926   5.987   4.823  1.2433 -1.9506  1.9109
 3682SOL    HW212488   1.009   6.114   4.828  1.7207 -2.1528 -0.0142
 3683SOL     OW12489   3.297   3.780  11.806  0.5648  0.4812 -0.5785
 3683SOL    HW112490   3.213   3.826  11.802 -0.4435 -1.2811 -0.6643
 3683SOL    HW212491   3.359   3.840  11.765 -0.7514  1.5931 -1.0189
 3684SOL     OW12492   0.387   5.910   6.504  0.3893 -0.5206 -0.1573
 3684SOL    HW112493   0.398   5.983   6.443  0.2224  0.3318  0.8037
 3684SOL    HW212494   0.310   5.862   6.471 -0.3415  0.5360 -0.0351
 3685SOL     OW12495   7.549   0.949   8.511 -0.1092  0.3576  0.0857
 3685SOL    HW112496   7.554   0.994   8.427 -1.0444  2.2705  0.9812
 3685SOL    HW212497   7.458   0.960   8.539  0.2491  0.0239  1.4619
 3686SOL     OW12498   7.547   6.105   1.026  0.2005 -0.4653 -0.4027
 3686SOL    HW112499   7.595   6.183   1.054 -0.0539 -0.3718 -0.2168
 3686SOL    HW212500   7.586   6.081   0.943 -2.1989  2.1370 -2.5102
 3687SOL     OW12501   6.137   4.770   3.708 -0.7755 -0.0376  0.0739
 3687SOL    HW112502   6.165   4.692   3.660 -3.5774 -0.1935 -1.5461
 3687SOL    HW212503   6.101   4.828   3.641 -0.8590  1.6886  1.5226
 3688SOL     OW12504   7.904   3.428   2.542 -0.0247 -1.0495  0.4736
 3688SOL    HW112505   7.942   3.482   2.472  0.7430 -0.4571  1.3338
 3688SOL    HW212506   7.932   3.339   2.520 -1.7426 -1.2250 -1.2477
 3689SOL     OW12507   1.663   1.513   5.111 -0.0442 -0.0386 -0.0382
 3689SOL    HW112508   1.741   1.554   5.148  0.2295 -0.7485  0.1770
 3689SOL    HW212509   1.590   1.562   5.150  0.2479 -0.4922  1.1214
 3690SOL     OW12510   0.404   4.598   7.226 -0.1474 -0.1782 -0.1712
 3690SOL    HW112511   0.349   4.577   7.151  0.2708 -0.3856 -0.4205
 3690SOL    HW212512   0.456   4.519   7.241 -0.1986 -0.1241  0.3105
 3691SOL     OW12513   4.119   1.459  11.041  0.0636 -0.2937 -0.1603
 3691SOL    HW112514   4.170   1.429  11.117  3.1162  0.1291 -1.8938
 3691SOL    HW212515   4.054   1.390  11.027  0.3361 -1.0668  1.9565
 3692SOL     OW12516   1.126   7.671   3.692 -0.4284 -0.1000 -0.8848
 3692SOL    HW112517   1.128   7.576   3.681 -1.7903 -0.4901  1.6751
 3692SOL    HW212518   1.189   7.703   3.627  1.0678 -2.8229 -0.9461
 3693SOL     OW12519   3.390   0.583  10.225  0.7913 -0.3890  0.2642
 3693SOL    HW112520   3.448   0.508  10.229  1.3726  0.0814  0.8570
 3693SOL    HW212521   3.303   0.546  10.210  0.9757 -1.2208  1.1791
 3694SOL     OW12522   6.284   4.065  11.931 -0.2781  0.0685  0.2011
 3694SOL    HW112523   6.221   4.003  11.894 -0.3707  0.2144  0.1134
 3694SOL    HW212524   6.253   4.150  11.901  0.1355  0.1148 -0.1067
 3695SOL     OW12525   6.167   6.626   8.407  0.1899  0.3164 -0.4635
 3695SOL    HW112526   6.120   6.597   8.486 -0.2350 -0.6576 -1.0521
 3695SOL    HW212527   6.154   6.721   8.405  0.2479  0.3617  0.6611
 3696SOL     OW12528   4.509   3.364   9.969 -0.3186 -0.1847  0.5034
 3696SOL    HW112529   4.568   3.335   9.898  0.3886  0.3226  0.8668
 3696SOL    HW212530   4.468   3.443   9.934  0.3491  0.3045  0.8116
 3697SOL     OW12531   6.871   4.169   7.504  0.5065  0.4067 -0.2726
 3697SOL    HW112532   6.933   4.235   7.533  1.1348 -1.5052  3.2901
 3697SOL    HW212533   6.916   4.085   7.518 -1.8077 -0.9501 -0.3724
 3698SOL     OW12534   5.143   4.174   3.123 -0.1641 -0.3883  0.4977
 3698SOL    HW112535   5.075   4.124   3.079  1.3827 -2.1992  0.0545
 3698SOL    HW212536   5.221   4.163   3.069  0.6440  1.2285  1.2341
 3699SOL     OW12537   3.854   5.275   9.464  0.0721 -0.4756 -0.1402
 3699SOL    HW112538   3.895   5.245   9.545 -1.1845  0.6881  0.9964
 3699SOL    HW212539   3.926   5.299   9.407  1.1775  3.5710  2.5447
 3700SOL     OW12540   4.477   7.258   0.612 -0.2455 -0.3066  0.4226
 3700SOL    HW112541   4.385   7.252   0.637 -0.3316  0.8126  0.4216
 3700SOL    HW212542   4.500   7.350   0.627  1.1884 -0.7968  1.5121
 3701SOL     OW12543   4.916   6.387   2.294  0.2661 -0.1394  0.1369
 3701SOL    HW112544   4.949   6.334   2.366  1.7957 -1.6288 -1.5682
 3701SOL    HW212545   4.974   6.463   2.292  0.6801 -0.4563  0.0265
 3702SOL     OW12546   6.284   6.556   7.365 -0.1862  0.6717  0.0329
 3702SOL    HW112547   6.269   6.487   7.301 -0.1891  1.6107 -1.0246
 3702SOL    HW212548   6.225   6.626   7.338  0.7758  1.5995  0.2498
 3703SOL     OW12549   7.640   1.444   7.494  0.3037 -0.2268  0.2134
 3703SOL    HW112550   7.733   1.426   7.503 -0.0288 -2.2955  0.1100
 3703SOL    HW212551   7.634   1.516   7.431  1.8579  0.9349  1.3381
 3704SOL     OW12552   3.599   7.618   7.465  0.7442 -0.3215 -0.1151
 3704SOL    HW112553   3.505   7.605   7.459  0.4973  0.8811  0.8966
 3704SOL    HW212554   3.636   7.530   7.453 -0.5377 -0.9437  0.3456
 3705SOL     OW12555   2.636   6.539   6.148 -0.2444  0.1544  0.3022
 3705SOL    HW112556   2.669   6.561   6.061  0.3498 -1.3087  0.1266
 3705SOL    HW212557   2.714   6.528   6.202 -0.5384 -0.6774  0.5719
 3706SOL     OW12558   1.137   7.695   9.068 -0.5318  0.4773  0.6013
 3706SOL    HW112559   1.133   7.728   9.158  1.5314  0.6184  0.6714
 3706SOL    HW212560   1.145   7.774   9.015  1.2526  0.2961  0.5439
 3707SOL     OW12561   0.818   2.512   7.323  0.2428  0.3597  0.0132
 3707SOL    HW112562   0.785   2.427   7.351  3.0654 -0.6899  0.4954
 3707SOL    HW212563   0.743   2.571   7.330 -1.5092 -1.8331  0.7673
 3708SOL     OW12564   4.943   7.406   1.890 -0.3378  0.7683 -0.4245
 3708SOL    HW112565   4.892   7.354   1.828 -1.0473  0.6918  0.2030
 3708SOL    HW212566   4.894   7.488   1.898 -0.8966  0.3313  0.8923
 3709SOL     OW12567   0.674   7.390   1.968 -0.4326 -0.0027  0.6267
 3709SOL    HW112568   0.734   7.316   1.964 -0.8282 -0.5406  3.0528
 3709SOL    HW212569   0.617   7.378   1.892  1.5539 -0.2723 -0.9244
 3710SOL     OW12570   3.339   0.648   1.987  0.6221 -0.2751  0.1348
 3710SOL    HW112571   3.398   0.602   2.048  1.2101 -0.1658 -0.3393
 3710SOL    HW212572   3.398   0.700   1.932 -0.0776  1.8982  1.3169
 3711SOL     OW12573   4.831   3.937  10.232 -0.1098  0.1102 -0.3177
 3711SOL    HW112574   4.877   3.965  10.311 -0.7392 -0.2250  0.1682
 3711SOL    HW212575   4.751   3.989  10.231 -0.4906 -0.4665 -0.3015
 3712SOL     OW12576   0.054   2.359   2.871  0.2547 -0.2439  0.2660
 3712SOL    HW112577  -0.001   2.411   2.930  1.1374 -0.2367  1.1152
 3712SOL    HW212578   0.092   2.424   2.812 -0.5626 -0.2372 -0.2640
 3713SOL     OW12579   4.832   2.008   7.410 -0.3258  0.0203 -0.0538
 3713SOL    HW112580   4.814   2.049   7.495  1.4206 -0.3579  0.5457
 3713SOL    HW212581   4.903   2.061   7.373 -1.0850  0.1932 -1.3180
 3714SOL     OW12582   4.930   0.289  11.893 -0.0768  0.6747 -0.4092
 3714SOL    HW112583   4.991   0.361  11.879  0.0115  0.2536 -2.4651
 3714SOL    HW212584   4.843   0.328  11.879 -0.1858  0.8287  0.5895
 3715SOL     OW12585   0.269   7.116  11.718 -0.0595 -0.2492 -0.3364
 3715SOL    HW112586   0.188   7.166  11.724 -1.5523 -1.9916 -3.3697
 3715SOL    HW212587   0.283   7.104  11.624  3.2057 -0.9221  0.0986
 3716SOL     OW12588   5.528   5.511   5.533  0.5323  0.1856 -0.0874
 3716SOL    HW112589   5.567   5.545   5.452 -0.0293  0.2639 -0.3287
 3716SOL    HW212590   5.581   5.434   5.554 -0.8458 -1.3588 -1.9228
 3717SOL     OW12591   6.227   4.681   5.931  0.3285 -0.0541  0.0821
 3717SOL    HW112592   6.284   4.655   6.004  2.3509 -0.8304 -1.6625
 3717SOL    HW212593   6.273   4.755   5.891 -1.0305  0.7121 -0.1132
 3718SOL     OW12594   6.408   7.663   8.681  0.0388 -0.2340 -0.1213
 3718SOL    HW112595   6.375   7.708   8.604  1.0618  1.2769  0.2936
 3718SOL    HW212596   6.462   7.727   8.726  2.3118 -2.1290  0.0210
 3719SOL     OW12597   0.284   7.128   3.425  0.5655 -0.6718  0.0254
 3719SOL    HW112598   0.339   7.126   3.347 -0.6216 -0.8509 -0.8431
 3719SOL    HW212599   0.289   7.039   3.460 -0.3711 -1.1371 -0.9540
 3720SOL     OW12600   7.400   7.256   1.726  0.1066  0.2581 -0.0857
 3720SOL    HW112601   7.387   7.301   1.809  2.1226  0.0097  0.4152
 3720SOL    HW212602   7.495   7.255   1.713  0.0283 -2.1070 -1.0262
 3721SOL     OW12603   0.870   0.240   6.282 -0.1201  0.1542 -0.3552
 3721SOL    HW112604   0.873   0.173   6.350 -1.4354  1.7099  1.3449
 3721SOL    HW212605   0.848   0.193   6.202  0.9263 -1.6609  0.3634
 3722SOL     OW12606   6.850   1.834   8.242  0.4838  0.3894  0.4606
 3722SOL    HW112607   6.830   1.765   8.179  2.4980  0.2596 -0.1054
 3722SOL    HW212608   6.765   1.871   8.265 -0.7702 -2.6059  1.2179
 3723SOL     OW12609   6.996   1.882   7.904  0.5053 -0.4487 -0.4019
 3723SOL    HW112610   6.989   1.889   7.809 -3.3420 -0.7099 -0.3209
 3723SOL    HW212611   6.984   1.789   7.922  0.4638 -0.3072  0.3431
 3724SOL     OW12612   0.778   6.043   2.510 -0.3669  0.0710 -0.0688
 3724SOL    HW112613   0.827   6.055   2.428  0.4203  0.6823  0.4766
 3724SOL    HW212614   0.728   6.124   2.519  0.4422  0.5062  0.6340
 3725SOL     OW12615   7.606   5.904   9.190  0.4619 -0.1318  0.3645
 3725SOL    HW112616   7.678   5.927   9.249 -0.6775  0.8482  1.4453
 3725SOL    HW212617   7.542   5.974   9.202 -0.5126 -0.7646 -0.8595
 3726SOL     OW12618   2.929   3.858   9.987  0.0122  0.8076 -0.2620
 3726SOL    HW112619   2.931   3.931  10.049  1.8198 -0.1509  0.8823
 3726SOL    HW212620   2.992   3.794  10.022 -2.7805 -2.1665 -0.1701
 3727SOL     OW12621   7.128   5.145   8.635  0.4222  0.6921  0.2865
 3727SOL    HW112622   7.073   5.191   8.572 -0.8984 -0.9809  0.1303
 3727SOL    HW212623   7.077   5.145   8.716  1.6323  1.8791  1.0915
 3728SOL     OW12624   4.370   4.783   2.354 -0.0617  0.4840 -0.6660
 3728SOL    HW112625   4.391   4.830   2.435  1.2652 -0.7860 -0.2281
 3728SOL    HW212626   4.396   4.842   2.284 -1.5090  1.7257 -0.2138
 3729SOL     OW12627   1.131   7.782   7.335  0.8260  0.2492 -0.0494
 3729SOL    HW112628   1.105   7.859   7.285 -0.6839 -0.3392 -0.2237
 3729SOL    HW212629   1.149   7.715   7.269  1.4777  0.2455  0.1228
 3730SOL     OW12630   5.954   0.950   4.238 -0.4174 -0.1031 -0.0077
 3730SOL    HW112631   5.902   0.946   4.158  0.6125  1.3167 -0.7913
 3730SOL    HW212632   5.907   1.012   4.294 -0.3970 -0.0321 -0.0697
 3731SOL     OW12633   4.756   7.566   9.718  1.0420  0.2777 -0.3381
 3731SOL    HW112634   4.703   7.540   9.643  0.2335  1.3375 -0.1538
 3731SOL    HW212635   4.838   7.518   9.707  0.0853 -1.3572 -0.6467
 3732SOL     OW12636   3.599   3.179   7.422  0.1248 -0.1452  0.1145
 3732SOL    HW112637   3.549   3.202   7.501  0.2221  1.0580 -0.1449
 3732SOL    HW212638   3.590   3.085   7.414  1.2834 -0.5242  2.3608
 3733SOL     OW12639   5.579   4.850   4.666  0.5902  0.0495  0.6222
 3733SOL    HW112640   5.666   4.838   4.703  0.2221  2.9533  2.7882
 3733SOL    HW212641   5.585   4.933   4.618 -0.7753 -0.1473  0.0571
 3734SOL     OW12642   3.170   2.127   0.300  0.0546 -0.1015  0.5488
 3734SOL    HW112643   3.169   2.147   0.394  3.2726 -0.3672  0.7384
 3734SOL    HW212644   3.201   2.036   0.295 -0.9976 -0.4231 -0.7784
 3735SOL     OW12645   3.181   2.492  11.813  0.0353  0.0572  0.2134
 3735SOL    HW112646   3.176   2.587  11.816  2.3932  0.2312  0.6322
 3735SOL    HW212647   3.272   2.472  11.835 -0.7401 -2.3740  1.5813
 3736SOL     OW12648   0.680   5.922  11.663 -0.4753 -0.0708  0.4387
 3736SOL    HW112649   0.748   5.942  11.727  0.6319 -0.1713 -0.6805
 3736SOL    HW212650   0.678   5.998  11.605 -0.5480 -0.5486 -0.1879
 3737SOL     OW12651   7.297   0.482  10.672 -0.1931  0.2014 -0.6860
 3737SOL    HW112652   7.221   0.536  10.651 -1.4074 -0.4987  1.5624
 3737SOL    HW212653   7.349   0.535  10.733 -1.1932 -0.8790  1.2242
 3738SOL     OW12654   7.628   2.528   1.323 -0.1944  0.5344 -0.2203
 3738SOL    HW112655   7.620   2.461   1.391 -2.1180  0.0720 -0.8567
 3738SOL    HW212656   7.554   2.512   1.265 -0.1601  2.6472 -0.9104
 3739SOL     OW12657   4.431   6.038   8.788 -0.6025  0.7241 -0.2709
 3739SOL    HW112658   4.358   6.037   8.726  0.5279  2.5789 -1.7258
 3739SOL    HW212659   4.491   6.105   8.754  1.2329  0.0833  1.5084
 3740SOL     OW12660   5.253   2.921   4.754 -0.0618  0.0767  0.0539
 3740SOL    HW112661   5.345   2.931   4.778 -0.1223  0.2669  0.2090
 3740SOL    HW212662   5.212   3.002   4.782 -0.2469  0.0610 -0.1679
 3741SOL     OW12663   6.047   2.193   5.460  0.0747 -0.1917  0.4036
 3741SOL    HW112664   6.113   2.188   5.390 -0.4703 -2.3692 -0.0118
 3741SOL    HW212665   5.989   2.264   5.433 -0.3932 -1.2804 -1.6368
 3742SOL     OW12666   5.527   3.062   4.057  0.2831  0.1680  0.2399
 3742SOL    HW112667   5.451   3.044   4.112  0.0338 -1.5327 -0.6079
 3742SOL    HW212668   5.586   2.989   4.073  0.4875 -0.0205 -1.2569
 3743SOL     OW12669   7.443   7.101  10.112  0.3727 -0.1276  0.1410
 3743SOL    HW112670   7.496   7.049  10.052 -0.7204  0.1863 -1.1373
 3743SOL    HW212671   7.403   7.169  10.057 -2.8211 -1.4221  0.6135
 3744SOL     OW12672   3.225   3.593   7.137  0.0061 -0.0638  0.0172
 3744SOL    HW112673   3.233   3.548   7.053 -1.2270  3.5215 -2.2406
 3744SOL    HW212674   3.131   3.592   7.155  0.3645 -1.9583  2.1870
 3745SOL     OW12675   5.129   5.100   9.483 -0.3151  0.3636 -0.2254
 3745SOL    HW112676   5.069   5.109   9.409  1.3059 -2.1908 -1.9912
 3745SOL    HW212677   5.199   5.162   9.464 -0.1832  0.1205 -0.5364
 3746SOL     OW12678   3.265   1.929   3.500  0.0081 -0.2870  0.2770
 3746SOL    HW112679   3.195   1.934   3.435  0.4508 -0.3686 -0.2175
 3746SOL    HW212680   3.221   1.935   3.584 -0.3713  2.6688 -0.0259
 3747SOL     OW12681   2.192   1.523   4.236 -0.9596  0.1015 -0.0975
 3747SOL    HW112682   2.224   1.559   4.318 -0.2237  1.9257 -1.1033
 3747SOL    HW212683   2.232   1.437   4.229 -0.2891  0.3099  1.0056
 3748SOL     OW12684   2.994   0.788   8.902  0.2574 -0.0015 -0.4414
 3748SOL    HW112685   3.008   0.872   8.944  1.0046 -0.4088  0.1575
 3748SOL    HW212686   3.032   0.724   8.963 -1.8509 -0.9562 -0.0185
 3749SOL     OW12687   6.834   2.205   2.636 -0.7239  0.9996 -0.1291
 3749SOL    HW112688   6.760   2.146   2.649 -0.6347  1.4394  2.9514
 3749SOL    HW212689   6.799   2.293   2.647  0.1897  1.2178  1.2975
 3750SOL     OW12690   3.470   3.207   7.666 -0.3308 -0.1891  0.0044
 3750SOL    HW112691   3.505   3.160   7.741 -1.6219  0.4486  1.0398
 3750SOL    HW212692   3.425   3.283   7.703 -1.3942 -0.1023 -1.3732
 3751SOL     OW12693   5.777   7.571  11.634  0.3253  0.1634 -0.8735
 3751SOL    HW112694   5.822   7.490  11.612 -1.3247 -0.5446 -1.8512
 3751SOL    HW212695   5.705   7.545  11.691 -1.4929  0.5594 -2.8345
 3752SOL     OW12696   2.708   1.870   0.378 -0.2577  0.0227  0.0602
 3752SOL    HW112697   2.635   1.911   0.332  0.0502 -0.0409 -0.4923
 3752SOL    HW212698   2.732   1.933   0.446 -1.7955 -0.5997  1.2436
 3753SOL     OW12699   2.504   4.244   9.342 -0.1420 -0.0875 -0.3347
 3753SOL    HW112700   2.502   4.191   9.421  0.5202 -0.0691 -0.3040
 3753SOL    HW212701   2.465   4.188   9.275 -0.6264 -0.1330 -0.0246
 3754SOL     OW12702   4.522   5.455  10.113 -0.3573  0.1357 -0.1492
 3754SOL    HW112703   4.439   5.419  10.082  1.1326 -3.3054 -0.5822
 3754SOL    HW212704   4.588   5.391  10.086  2.0551  0.9180  3.2073
 3755SOL     OW12705   6.423   3.539   6.606  0.0172  0.4697  0.2139
 3755SOL    HW112706   6.354   3.589   6.650 -0.1742 -1.4551  2.2980
 3755SOL    HW212707   6.502   3.560   6.656  0.1839 -0.2765  0.2714
 3756SOL     OW12708   7.878   1.530   1.312  0.6693  0.5975  0.3585
 3756SOL    HW112709   7.798   1.569   1.348  0.1367  0.9591 -1.1720
 3756SOL    HW212710   7.882   1.562   1.222  1.5745 -0.8742 -0.1541
 3757SOL     OW12711   7.708   2.023   9.881 -0.0949 -0.3249 -0.3744
 3757SOL    HW112712   7.714   2.118   9.894 -0.5160 -0.2145 -0.9516
 3757SOL    HW212713   7.695   1.988   9.969 -0.6796  0.2211 -0.2328
 3758SOL     OW12714   1.328   0.304   4.468 -0.0297  0.5133  0.2212
 3758SOL    HW112715   1.356   0.289   4.559 -0.4989 -1.1496  0.1203
 3758SOL    HW212716   1.236   0.327   4.474 -0.2900 -0.4605  0.1287
 3759SOL     OW12717   7.654   1.473   4.736  0.5283 -0.2978  0.3734
 3759SOL    HW112718   7.680   1.431   4.654 -0.8372  1.6363 -1.1566
 3759SOL    HW212719   7.595   1.411   4.778 -0.7529 -0.3357 -1.3806
 3760SOL     OW12720   2.260   4.014   8.001 -0.1236 -0.1985  0.0356
 3760SOL    HW112721   2.193   4.035   8.066 -1.1103 -1.1071 -0.6665
 3760SOL    HW212722   2.212   4.002   7.919  0.8727 -1.0363 -0.4441
 3761SOL     OW12723   7.788   5.549   1.249 -0.6590  0.3171  0.1092
 3761SOL    HW112724   7.776   5.643   1.233 -1.7636 -0.0264 -1.2368
 3761SOL    HW212725   7.706   5.520   1.287 -0.5695 -0.2318 -0.1046
 3762SOL     OW12726   5.438   1.958   7.617 -0.9088  0.1549  0.0913
 3762SOL    HW112727   5.424   1.914   7.701  1.2641  0.4468  0.6521
 3762SOL    HW212728   5.482   1.892   7.563 -1.5902  0.2307 -0.5750
 3763SOL     OW12729   3.127   5.398   5.706  0.1076 -0.1857 -0.0464
 3763SOL    HW112730   3.117   5.319   5.653  0.1250  0.2235 -0.6676
 3763SOL    HW212731   3.040   5.437   5.708 -0.6648 -1.7651  2.7879
 3764SOL     OW12732   2.607   1.050   2.416 -0.0246  0.1548 -0.2120
 3764SOL    HW112733   2.567   1.037   2.330 -0.8942 -2.6455  0.5175
 3764SOL    HW212734   2.570   1.132   2.448 -1.6514 -0.0519 -1.4513
 3765SOL     OW12735   0.318   0.776   3.195  0.1524 -0.7327 -0.4731
 3765SOL    HW112736   0.357   0.693   3.222 -0.8888 -1.4593 -1.1191
 3765SOL    HW212737   0.266   0.804   3.271 -0.3234 -1.2121 -0.6140
 3766SOL     OW12738   0.209   5.359  10.063  0.4305  0.2487  0.0747
 3766SOL    HW112739   0.128   5.345  10.113 -0.4039 -2.1851 -1.7287
 3766SOL    HW212740   0.275   5.310  10.111  0.5275  1.0271  0.7605
 3767SOL     OW12741   2.855   1.677   0.226 -0.3151 -0.1508  0.4630
 3767SOL    HW112742   2.883   1.704   0.139 -0.2161 -0.7233  0.3137
 3767SOL    HW212743   2.842   1.759   0.274  0.7141  0.1412  0.2570
 3768SOL     OW12744   1.207   0.897   4.690 -0.2234 -0.6034 -0.0109
 3768SOL    HW112745   1.239   0.981   4.725 -1.7094  0.1437 -0.3701
 3768SOL    HW212746   1.135   0.921   4.631  0.7008 -1.9940 -1.8106
 3769SOL     OW12747   0.006   1.421  12.317  0.6399  0.6246 -0.1266
 3769SOL    HW112748   0.074   1.454  12.375 -0.6584  3.1968  0.0569
 3769SOL    HW212749  -0.071   1.474  12.337 -1.7705 -2.6762  0.2905
 3770SOL     OW12750   4.843   2.718   9.341  0.0870 -0.0475 -0.2276
 3770SOL    HW112751   4.766   2.701   9.396  0.3809  1.8295  0.8512
 3770SOL    HW212752   4.917   2.709   9.400  0.6638 -1.1067 -1.0909
 3771SOL     OW12753   3.067   7.305   9.822 -0.3980  0.1133 -0.0170
 3771SOL    HW112754   3.038   7.252   9.896  2.0224 -1.1080  0.1628
 3771SOL    HW212755   3.054   7.395   9.849 -1.9399 -0.3325  0.8341
 3772SOL     OW12756   1.600   3.395   4.059 -0.2135  0.2736 -0.4555
 3772SOL    HW112757   1.683   3.401   4.012 -0.1601 -1.9221 -0.7714
 3772SOL    HW212758   1.625   3.379   4.150 -0.2917  0.2432 -0.4396
 3773SOL     OW12759   5.304   2.881   9.361  0.3188  0.7430  0.0957
 3773SOL    HW112760   5.317   2.817   9.431  0.2704  1.4164  0.7264
 3773SOL    HW212761   5.226   2.851   9.315 -0.0579  0.6889  0.7646
 3774SOL     OW12762   2.318   2.399   5.229  0.0064  0.1839 -0.6611
 3774SOL    HW112763   2.407   2.433   5.227 -0.2362  0.9821  0.6383
 3774SOL    HW212764   2.268   2.465   5.277 -1.1424 -0.5589 -0.7840
 3775SOL     OW12765   4.762   2.692   4.508  0.0692 -0.1034  0.3459
 3775SOL    HW112766   4.732   2.714   4.420 -0.2231 -1.4902  0.0709
 3775SOL    HW212767   4.820   2.764   4.533  0.5998  0.0402 -1.2043
 3776SOL     OW12768   4.115   6.501   5.037 -0.8109 -0.4696  0.8594
 3776SOL    HW112769   4.042   6.560   5.055 -0.9058 -0.3675  0.1496
 3776SOL    HW212770   4.149   6.529   4.953  0.0267 -0.5500  1.1611
 3777SOL     OW12771   0.931   7.397  11.813 -0.4522 -0.6434  0.1378
 3777SOL    HW112772   0.984   7.328  11.853 -0.2685 -1.1206 -0.9001
 3777SOL    HW212773   0.970   7.412  11.727 -2.3078 -1.4126 -0.9098
 3778SOL     OW12774   7.104   3.551   4.493 -0.1952 -0.3095  0.0683
 3778SOL    HW112775   7.175   3.507   4.539 -0.9729 -3.1717 -1.2817
 3778SOL    HW212776   7.148   3.610   4.431  0.9652 -0.8267  0.3896
 3779SOL     OW12777   5.971   5.829   7.270 -0.2760 -0.2964  0.0229
 3779SOL    HW112778   5.939   5.743   7.299 -0.0097 -0.7155 -0.8758
 3779SOL    HW212779   5.938   5.838   7.181 -2.1304  1.5191  0.8115
 3780SOL     OW12780   7.038   2.797   8.554  0.5390 -0.3000 -0.1500
 3780SOL    HW112781   7.031   2.762   8.642  0.9257 -1.1808 -0.4623
 3780SOL    HW212782   6.982   2.740   8.501  0.2040  0.3056 -0.4565
 3781SOL     OW12783   1.009   2.516  11.107 -0.1384  0.1195 -0.0909
 3781SOL    HW112784   0.928   2.566  11.117 -0.9400 -1.0823 -0.3601
 3781SOL    HW212785   1.037   2.496  11.197 -0.5707 -0.1197 -0.0081
 3782SOL     OW12786   4.910   1.163   6.460  0.1104 -0.0348  0.4603
 3782SOL    HW112787   4.932   1.248   6.424  1.4685  0.0816  1.4915
 3782SOL    HW212788   4.816   1.169   6.480 -0.1620  0.6418 -0.9403
 3783SOL     OW12789   0.725   3.132  10.109  0.4646  0.3423  0.4668
 3783SOL    HW112790   0.792   3.067  10.089  0.0056 -0.9326  2.6766
 3783SOL    HW212791   0.768   3.193  10.169  0.2337  0.7396  0.2306
 3784SOL     OW12792   2.778   0.410   6.384 -0.2874  0.0318  0.1697
 3784SOL    HW112793   2.762   0.324   6.344  1.7792 -0.5175  0.4259
 3784SOL    HW212794   2.756   0.473   6.316  0.9866 -0.8158 -1.0909
 3785SOL     OW12795   3.980   1.464   1.875  0.1363  0.0204 -0.1909
 3785SOL    HW112796   4.066   1.444   1.911 -0.7502 -2.3730  0.7737
 3785SOL    HW212797   3.994   1.465   1.780  0.9463 -2.0664 -0.1448
 3786SOL     OW12798   6.539   1.955   6.285 -0.0189  0.3054 -0.1654
 3786SOL    HW112799   6.479   1.969   6.358  0.9492  0.1578  0.6862
 3786SOL    HW212800   6.548   2.041   6.244 -0.5068  0.4053 -0.0672
 3787SOL     OW12801   0.945   7.403   0.308  0.7247 -0.0895 -0.2430
 3787SOL    HW112802   1.000   7.369   0.237  1.4657 -0.5650  0.5313
 3787SOL    HW212803   1.008   7.431   0.375  0.0190 -0.7319  0.7040
 3788SOL     OW12804   0.366   7.771   8.903 -0.1624 -0.0051 -0.6327
 3788SOL    HW112805   0.298   7.733   8.959 -0.3018 -1.2899 -1.6329
 3788SOL    HW212806   0.446   7.766   8.955 -0.8597  1.9979  0.7639
 3789SOL     OW12807   4.518   0.755   1.567  0.3622 -0.1412  0.2757
 3789SOL    HW112808   4.518   0.842   1.528  0.2596 -0.4328 -0.4039
 3789SOL    HW212809   4.443   0.710   1.526 -0.3502 -0.1594  1.5311
 3790SOL     OW12810   1.117   6.244  11.564 -0.0107  0.4346 -0.8279
 3790SOL    HW112811   1.204   6.262  11.600  0.4646 -1.0801 -1.1866
 3790SOL    HW212812   1.132   6.226  11.471 -0.2423 -2.8419 -0.3397
 3791SOL     OW12813   4.038   2.889   2.047 -0.4619  0.1706  0.4227
 3791SOL    HW112814   4.021   2.848   1.963 -1.4018 -1.8491  1.5109
 3791SOL    HW212815   4.054   2.815   2.106 -0.2395  1.5014  2.1061
 3792SOL     OW12816   1.651   1.983   0.716 -0.2533  0.0933 -0.2472
 3792SOL    HW112817   1.563   1.945   0.709 -0.6193  1.1688 -3.1471
 3792SOL    HW212818   1.710   1.909   0.707 -0.8558 -0.5231  0.6952
 3793SOL     OW12819   0.759   5.646   3.367 -0.1714 -0.3152 -0.0298
 3793SOL    HW112820   0.701   5.624   3.295  1.5107 -0.2635 -1.4500
 3793SOL    HW212821   0.757   5.742   3.372 -1.3534 -0.3696  0.9364
 3794SOL     OW12822   4.596   6.146  10.911 -0.4128 -0.0065  0.1572
 3794SOL    HW112823   4.591   6.068  10.857  0.1702 -0.2605  0.4562
 3794SOL    HW212824   4.672   6.194  10.878  0.6767 -0.7503  1.4873
 3795SOL     OW12825   6.537   6.122   2.424 -0.0365  0.1459  0.0603
 3795SOL    HW112826   6.444   6.108   2.442 -0.5147  0.5100 -1.9457
 3795SOL    HW212827   6.552   6.213   2.447 -0.9949  1.0393 -2.4712
 3796SOL     OW12828   7.000   5.279   8.449  0.3598 -0.0703  0.1719
 3796SOL    HW112829   6.958   5.350   8.496  1.3379  1.3990 -1.0710
 3796SOL    HW212830   6.947   5.268   8.370  1.5903  1.0136 -0.8456
 3797SOL     OW12831   0.086   4.561   8.787  0.3700  0.1617  0.4445
 3797SOL    HW112832   0.101   4.609   8.706  0.6951 -0.9081 -0.1472
 3797SOL    HW212833  -0.005   4.534   8.782  0.5081 -0.2702  0.2300
 3798SOL     OW12834   1.762   4.097  12.379 -0.3339 -0.1763 -0.2232
 3798SOL    HW112835   1.843   4.147  12.384 -0.9154  0.6691  1.7344
 3798SOL    HW212836   1.736   4.102  12.287  1.7324 -0.3601 -0.8676
 3799SOL     OW12837   2.853   1.899  10.512 -0.2240  0.3584  0.3354
 3799SOL    HW112838   2.884   1.988  10.528 -0.4529  0.6155 -0.5792
 3799SOL    HW212839   2.845   1.860  10.599 -0.1826  1.2567  0.7516
 3800SOL     OW12840   3.498   3.946   1.766 -1.0403 -0.3154  0.5859
 3800SOL    HW112841   3.562   3.916   1.831 -0.7891 -1.4455 -0.1533
 3800SOL    HW212842   3.466   3.866   1.725 -3.3777  0.1565  1.3179
 3801SOL     OW12843   7.564   6.995   5.226 -0.2202 -0.1459 -1.0243
 3801SOL    HW112844   7.641   6.974   5.173 -0.1796 -1.2732 -0.5461
 3801SOL    HW212845   7.529   6.910   5.253 -1.6317  0.3346 -1.2075
 3802SOL     OW12846   4.276   0.488   0.859 -0.3573 -0.4190 -0.1715
 3802SOL    HW112847   4.334   0.487   0.783 -0.7900  0.7961 -0.5456
 3802SOL    HW212848   4.220   0.565   0.845 -1.0749 -0.7274  0.9047
 3803SOL     OW12849   1.948   5.455   5.682 -0.4243  0.1261  0.0897
 3803SOL    HW112850   1.954   5.515   5.608  0.5878  1.4422  1.1774
 3803SOL    HW212851   1.857   5.424   5.680 -0.7207  0.9918 -1.0406
 3804SOL     OW12852   1.520   6.920  11.325  0.2872 -0.1379  0.0477
 3804SOL    HW112853   1.583   6.941  11.394  1.8279 -0.5485 -1.1616
 3804SOL    HW212854   1.565   6.854  11.272 -1.7803 -1.5569 -0.0379
 3805SOL     OW12855   5.650   7.448   5.904  0.5776 -0.2851  0.3105
 3805SOL    HW112856   5.668   7.355   5.894  0.6746 -0.2189 -0.1165
 3805SOL    HW212857   5.621   7.457   5.996  0.6132 -0.7232  0.3643
 3806SOL     OW12858   3.102   5.349   6.194 -0.4756 -0.5174  0.6275
 3806SOL    HW112859   3.009   5.332   6.178 -0.5500 -1.5674  1.9396
 3806SOL    HW212860   3.119   5.311   6.280  0.8380  0.9906  1.0918
 3807SOL     OW12861   7.888   0.810  10.613  0.1097 -0.5246  0.1689
 3807SOL    HW112862   7.853   0.777  10.530  0.2277  0.5605 -0.3299
 3807SOL    HW212863   7.824   0.875  10.641 -0.1078 -1.1242  1.1227
 3808SOL     OW12864   7.474   0.060   3.911 -0.4417  0.6065 -0.2509
 3808SOL    HW112865   7.561   0.100   3.920 -0.8737  1.4665  0.2309
 3808SOL    HW212866   7.413   0.133   3.924 -1.2454 -0.0828 -0.0999
 3809SOL     OW12867   2.192   3.685   6.255 -0.1583 -0.1821  0.2120
 3809SOL    HW112868   2.227   3.625   6.321  0.2351 -1.4250 -1.0561
 3809SOL    HW212869   2.251   3.673   6.180 -0.2801  1.5813 -0.1886
 3810SOL     OW12870   5.780   5.178   0.929  0.2352  0.2902 -0.5594
 3810SOL    HW112871   5.784   5.143   0.840 -0.0891  1.6729 -1.1605
 3810SOL    HW212872   5.757   5.270   0.917 -2.9651 -0.1522  1.0810
 3811SOL     OW12873   0.978   3.915  10.407  0.5776 -0.0126  0.6329
 3811SOL    HW112874   0.935   3.947  10.328 -0.7719 -0.3503  1.2058
 3811SOL    HW212875   1.055   3.972  10.417  1.6361 -0.9133 -1.7169
 3812SOL     OW12876   5.538   1.154  10.693  0.1464 -0.2361  0.9253
 3812SOL    HW112877   5.602   1.084  10.707 -1.5038 -1.3538  3.4823
 3812SOL    HW212878   5.588   1.222  10.647  2.6879 -1.7508  1.2403
 3813SOL     OW12879   4.838   7.003   6.423 -0.4467  0.4794 -0.0183
 3813SOL    HW112880   4.870   6.922   6.462  1.9849  1.1946 -0.3898
 3813SOL    HW212881   4.743   6.993   6.421 -0.4904 -0.8393  3.2916
 3814SOL     OW12882   7.397   0.712  11.824 -0.1123 -0.2067 -0.3399
 3814SOL    HW112883   7.342   0.790  11.814 -0.1409 -0.2795 -0.7716
 3814SOL    HW212884   7.350   0.644  11.775  0.1642 -0.3671 -0.3813
 3815SOL     OW12885   4.519   5.792   6.760  0.2041  0.0359 -0.9971
 3815SOL    HW112886   4.506   5.788   6.855 -0.9051 -2.9530 -1.1611
 3815SOL    HW212887   4.430   5.787   6.723  0.6356  0.8116 -2.2136
 3816SOL     OW12888   6.105   3.968   2.115  0.5525 -0.4357 -0.4168
 3816SOL    HW112889   6.194   3.944   2.088  0.0802 -0.2143 -2.2640
 3816SOL    HW212890   6.090   4.054   2.075 -0.0842  0.0864  0.8719
 3817SOL     OW12891   5.175   3.715   1.038  0.3186 -0.0403 -0.2507
 3817SOL    HW112892   5.160   3.728   0.944 -0.7701  0.1168 -0.0611
 3817SOL    HW212893   5.227   3.792   1.063 -2.4280  1.8731 -0.0298
 3818SOL     OW12894   5.658   7.471  11.291  0.8784 -0.1442  0.4406
 3818SOL    HW112895   5.748   7.468  11.258  0.8976 -1.1126  0.5471
 3818SOL    HW212896   5.664   7.518  11.374  1.2399  0.0668  0.2943
 3819SOL     OW12897   7.272   5.650   6.551 -0.1221  0.1256  0.4106
 3819SOL    HW112898   7.336   5.712   6.585  0.5904  0.1509 -0.9069
 3819SOL    HW212899   7.241   5.603   6.628  0.3097  1.1908  1.2705
 3820SOL     OW12900   5.189   6.434  10.357 -0.3017 -0.6573  0.0506
 3820SOL    HW112901   5.260   6.483  10.397 -0.0713  1.5827 -2.8111
 3820SOL    HW212902   5.232   6.358  10.317 -0.1888 -1.5270  1.7428
 3821SOL     OW12903   0.153   2.573   8.291  0.4892 -0.6723  0.0124
 3821SOL    HW112904   0.087   2.543   8.229 -0.4446 -0.4461  0.8710
 3821SOL    HW212905   0.167   2.499   8.349  1.2053 -0.8123 -0.3285
 3822SOL     OW12906   2.826   5.188   2.804  0.1988  0.3503  0.0387
 3822SOL    HW112907   2.864   5.101   2.795  0.6500  0.5019  0.4609
 3822SOL    HW212908   2.846   5.214   2.894 -1.2457  0.2696  0.4197
 3823SOL     OW12909   4.887   4.814   3.520  0.2053 -0.4731 -0.3503
 3823SOL    HW112910   4.928   4.734   3.555 -1.3026 -0.7595  0.9050
 3823SOL    HW212911   4.830   4.783   3.450 -2.1479 -0.9103  1.6163
 3824SOL     OW12912   5.634   7.848   9.775  0.0682  0.0821  0.5691
 3824SOL    HW112913   5.603   7.758   9.760  1.9249 -0.3426 -1.2669
 3824SOL    HW212914   5.727   7.845   9.753  0.4586  2.2195  1.6565
 3825SOL     OW12915   7.457   4.952  12.167 -0.1080  0.0177 -0.6112
 3825SOL    HW112916   7.551   4.968  12.154  0.0266  0.7328  1.0367
 3825SOL    HW212917   7.439   4.986  12.254 -1.8343 -0.4772 -0.7482
 3826SOL     OW12918   0.521   5.354  12.126  0.0282  0.6806 -0.3472
 3826SOL    HW112919   0.452   5.384  12.067 -0.2779  0.7681  0.0484
 3826SOL    HW212920   0.577   5.298  12.072 -0.2407  0.7689 -0.7203
 3827SOL     OW12921   4.395   0.021   0.779 -0.2440 -0.1215 -0.0389
 3827SOL    HW112922   4.339   0.092   0.808 -1.3119 -0.9640  0.0413
 3827SOL    HW212923   4.450   0.001   0.854  0.0815  0.6292 -0.0714
 3828SOL     OW12924   2.052   3.316   0.100 -0.9819 -0.4216  0.2676
 3828SOL    HW112925   1.964   3.296   0.067 -0.7667  1.8169 -1.9825
 3828SOL    HW212926   2.038   3.384   0.166 -0.9313  0.6318 -0.7740
 3829SOL     OW12927   0.306   5.628  10.180 -0.0628 -0.5501 -0.3922
 3829SOL    HW112928   0.317   5.542  10.139  1.4625  0.4066 -2.1418
 3829SOL    HW212929   0.238   5.670  10.128 -0.8933 -0.6807  0.5375
 3830SOL     OW12930   4.866   6.970   1.755 -0.2442 -0.3982  0.1446
 3830SOL    HW112931   4.794   6.918   1.790  0.4158 -1.3941  0.0836
 3830SOL    HW212932   4.903   6.916   1.686 -0.7029  0.9821 -1.2268
 3831SOL     OW12933   6.246   7.587   0.864  0.1064  0.2997  0.2163
 3831SOL    HW112934   6.290   7.608   0.782 -0.8686  0.9691 -0.1547
 3831SOL    HW212935   6.211   7.671   0.895 -0.6998 -0.1670  0.6118
 3832SOL     OW12936   4.944   2.176   1.146 -0.1675  0.3687 -0.3926
 3832SOL    HW112937   4.913   2.247   1.202  0.1825  0.2981 -0.1071
 3832SOL    HW212938   5.011   2.131   1.198 -1.2740 -0.9673 -0.0526
 3833SOL     OW12939   2.798   0.004   6.483  0.4194  0.4793  0.7592
 3833SOL    HW112940   2.770   0.021   6.393 -1.6940 -0.4017  1.1897
 3833SOL    HW212941   2.868  -0.061   6.474 -1.6668 -1.7900 -0.1963
 3834SOL     OW12942   5.585   2.209   6.437  0.2976 -0.1219 -0.2665
 3834SOL    HW112943   5.538   2.273   6.384 -1.0022 -0.7055  0.1343
 3834SOL    HW212944   5.528   2.132   6.437  0.4540 -0.2873  1.6243
 3835SOL     OW12945   3.649   1.282   1.126 -0.4208  0.0131 -0.7695
 3835SOL    HW112946   3.617   1.215   1.065 -0.7385 -0.5879  0.0452
 3835SOL    HW212947   3.602   1.361   1.100 -1.9256 -0.6457 -0.1815
 3836SOL     OW12948   4.884   1.166   8.662  0.1493  0.1775  0.0066
 3836SOL    HW112949   4.940   1.230   8.705  0.4657 -0.3871  0.4469
 3836SOL    HW212950   4.868   1.203   8.575 -0.2969  1.2110  0.5098
 3837SOL     OW12951   5.162   7.474  10.855 -0.1581  0.0712  0.0192
 3837SOL    HW112952   5.115   7.496  10.774 -0.8277 -0.1726  0.3302
 3837SOL    HW212953   5.237   7.424  10.825 -0.4805 -0.1475 -0.4508
 3838SOL     OW12954   0.460   1.667   7.293  0.2729 -0.5959  0.0800
 3838SOL    HW112955   0.377   1.711   7.306  0.7521  0.9100 -1.5375
 3838SOL    HW212956   0.454   1.629   7.205  1.3693 -0.1986 -0.1961
 3839SOL     OW12957   4.654   5.095   7.301 -0.1237 -0.5849  0.0931
 3839SOL    HW112958   4.650   5.000   7.295 -0.8480 -0.5983  0.5566
 3839SOL    HW212959   4.747   5.116   7.295  0.0658 -1.3453  0.2443
 3840SOL     OW12960   5.452   2.868   8.602 -0.4600  0.2808  0.1508
 3840SOL    HW112961   5.449   2.899   8.693 -1.6230 -0.0740  0.2465
 3840SOL    HW212962   5.531   2.908   8.567  0.2251  0.1095  1.4292
 3841SOL     OW12963   0.536   2.515   3.406 -0.5172  0.0184  0.1336
 3841SOL    HW112964   0.580   2.434   3.382 -0.5494  0.2006 -0.5699
 3841SOL    HW212965   0.507   2.501   3.496  0.5549 -0.2878  0.4511
 3842SOL     OW12966   2.662   1.929   4.860  0.7004  0.1950 -0.0762
 3842SOL    HW112967   2.704   2.011   4.832 -0.1174  0.4149 -0.7098
 3842SOL    HW212968   2.630   1.947   4.948 -0.4590  0.9446 -0.6380
 3843SOL     OW12969   7.059   7.044   2.918 -0.5739  0.1174 -0.3261
 3843SOL    HW112970   7.150   7.039   2.947 -0.0540 -1.3260 -2.0234
 3843SOL    HW212971   7.015   6.971   2.962 -1.2253  1.4199  1.3058
 3844SOL     OW12972   2.829   4.066  12.001  0.4713 -0.2614 -0.3423
 3844SOL    HW112973   2.747   4.041  11.957 -0.4967  0.9079  0.7131
 3844SOL    HW212974   2.835   4.007  12.076 -0.5645  1.0097  0.7924
 3845SOL     OW12975   6.354   3.378   4.872 -0.0859  0.4081  0.3058
 3845SOL    HW112976   6.393   3.358   4.957 -1.8593 -2.3351  0.5901
 3845SOL    HW212977   6.403   3.324   4.809 -0.7106  0.1444  0.0393
 3846SOL     OW12978   1.170   5.472   2.107  0.2274 -0.4445  0.0689
 3846SOL    HW112979   1.076   5.462   2.118  0.3496 -0.8753  0.8104
 3846SOL    HW212980   1.208   5.437   2.188  0.9256  1.8954  0.8514
 3847SOL     OW12981   6.959   2.933   0.746 -0.5904 -0.2812 -0.1806
 3847SOL    HW112982   6.908   2.917   0.666  1.7167 -0.3847 -1.7288
 3847SOL    HW212983   6.987   3.025   0.738 -1.3326  0.0805  1.1498
 3848SOL     OW12984   4.837   1.647   7.292  0.5126 -0.3052  0.5217
 3848SOL    HW112985   4.816   1.737   7.267  0.3623 -0.2976  0.6709
 3848SOL    HW212986   4.752   1.606   7.308  0.5975 -0.3494  0.8740
 3849SOL     OW12987   1.780   1.284  12.369 -0.4499  0.0631 -0.1293
 3849SOL    HW112988   1.738   1.207  12.408 -0.6195 -0.4487 -1.2821
 3849SOL    HW212989   1.709   1.346  12.356 -0.3824  0.2617  0.4088
 3850SOL     OW12990   0.218   7.728   5.086 -0.0096 -0.4599  0.2469
 3850SOL    HW112991   0.142   7.693   5.133  0.9013  0.5340  2.6211
 3850SOL    HW212992   0.186   7.743   4.997 -2.3244 -0.8948  0.9266
 3851SOL     OW12993   2.402   1.185   4.455  0.1428  0.2023 -0.0875
 3851SOL    HW112994   2.495   1.163   4.463  0.5734  1.7140 -0.7369
 3851SOL    HW212995   2.391   1.209   4.363 -0.6768  0.9505  0.1961
 3852SOL     OW12996   4.485   1.591   1.397 -0.4306 -0.6525  0.0319
 3852SOL    HW112997   4.456   1.566   1.309 -1.6245  1.2167 -0.1898
 3852SOL    HW212998   4.450   1.523   1.454  1.2870 -2.4903 -0.9889
 3853SOL     OW12999   4.721   6.275   4.800  0.8292 -0.1922  0.1997
 3853SOL    HW113000   4.792   6.234   4.849  0.6975 -2.1718 -1.1382
 3853SOL    HW213001   4.648   6.277   4.861  1.2309 -0.7756  0.7142
 3854SOL     OW13002   1.794   4.475   3.019  0.1621  0.0234  0.3592
 3854SOL    HW113003   1.876   4.523   3.028 -0.4947  1.3959 -0.6775
 3854SOL    HW213004   1.815   4.403   2.959  1.1315 -1.0120  1.8633
 3855SOL     OW13005   2.054   1.898   9.111  0.5028 -0.2711  0.2665
 3855SOL    HW113006   2.139   1.894   9.069 -0.6848  0.4293 -2.4276
 3855SOL    HW213007   2.026   1.807   9.118  0.8416 -0.4103 -0.2001
 3856SOL     OW13008   2.180   2.261   3.655 -0.0551  0.1677 -0.4238
 3856SOL    HW113009   2.124   2.184   3.661 -0.1109  0.3188  1.3945
 3856SOL    HW213010   2.270   2.226   3.659 -0.0549  0.2502  2.7523
 3857SOL     OW13011   0.418   1.757   5.887  0.2240  0.5173 -0.0479
 3857SOL    HW113012   0.464   1.710   5.817 -0.0076 -1.2595  0.9270
 3857SOL    HW213013   0.398   1.689   5.952 -0.0981  1.9971  1.4728
 3858SOL     OW13014   7.053   2.514  11.462 -0.1136  0.3281  0.1360
 3858SOL    HW113015   7.035   2.607  11.473  0.2972  0.5583 -0.9925
 3858SOL    HW213016   7.126   2.496  11.522  3.1599  1.8950 -2.9978
 3859SOL     OW13017   0.148   7.309  11.023 -0.2728 -0.3892 -0.0120
 3859SOL    HW113018   0.161   7.215  11.029  1.5073 -0.1943 -0.4484
 3859SOL    HW213019   0.129   7.326  10.931 -2.7171 -0.5191  0.4020
 3860SOL     OW13020   5.291   2.718   5.488  0.0170 -0.3662 -0.0660
 3860SOL    HW113021   5.267   2.627   5.470  0.3214 -0.3805 -0.4075
 3860SOL    HW213022   5.212   2.757   5.525 -0.3856 -0.5439 -0.7156
 3861SOL     OW13023   4.741   2.884  11.731 -0.0676 -0.3826  0.5613
 3861SOL    HW113024   4.735   2.972  11.693  0.0388  0.3138  2.0852
 3861SOL    HW213025   4.822   2.884  11.781 -0.9549 -0.7068  2.0763
 3862SOL     OW13026   2.345   4.629   2.372  0.9491  0.7187  0.0604
 3862SOL    HW113027   2.310   4.651   2.285 -1.3586 -0.9150  0.4969
 3862SOL    HW213028   2.308   4.695   2.430 -1.0710 -0.6556  0.4229
 3863SOL     OW13029   3.392   4.472   4.160 -0.4198 -0.6304  0.1772
 3863SOL    HW113030   3.314   4.514   4.197 -0.5662 -1.1333  0.4442
 3863SOL    HW213031   3.414   4.403   4.222  2.3140  1.6231  1.9383
 3864SOL     OW13032   3.733   7.153   0.118 -0.2292 -0.4117 -0.1944
 3864SOL    HW113033   3.778   7.232   0.091 -1.2400  0.3333  0.2362
 3864SOL    HW213034   3.642   7.167   0.093  0.0932 -2.9842 -3.5792
 3865SOL     OW13035   1.489   1.202   0.487  0.1970 -0.2263  0.3890
 3865SOL    HW113036   1.499   1.134   0.421  0.9393 -0.4776  0.7464
 3865SOL    HW213037   1.397   1.197   0.513 -0.5550  1.0040 -1.8038
 3866SOL     OW13038   7.864   4.941   0.163  0.1155 -0.4867 -0.0211
 3866SOL    HW113039   7.928   5.001   0.199 -0.1672 -0.7606  0.9616
 3866SOL    HW213040   7.888   4.933   0.070 -0.1636  1.5161 -0.2978
 3867SOL     OW13041   3.202   1.906   4.348 -0.4423 -0.4159  0.0133
 3867SOL    HW113042   3.256   1.865   4.415  2.6748  0.4756 -1.7444
 3867SOL    HW213043   3.189   1.996   4.379  2.4100  0.5090 -1.1477
 3868SOL     OW13044   0.971   2.727   5.210 -0.6086 -0.3790  0.3288
 3868SOL    HW113045   1.043   2.664   5.198  1.1243  1.3004  1.4569
 3868SOL    HW213046   0.973   2.748   5.303 -2.1658  0.2196  0.2531
 3869SOL     OW13047   4.688   0.776   4.609  0.4682  0.1669  0.5148
 3869SOL    HW113048   4.753   0.755   4.677  2.1942  0.5370 -0.9405
 3869SOL    HW213049   4.635   0.846   4.646  0.9288 -0.1141  1.7347
 3870SOL     OW13050   7.257   1.469   7.271 -0.0099 -0.6639  0.0242
 3870SOL    HW113051   7.305   1.400   7.317  1.1683  0.1111  0.0124
 3870SOL    HW213052   7.202   1.508   7.339 -0.7915 -1.6835 -0.0007
 3871SOL     OW13053   6.825   2.005  10.220 -0.2176 -0.1379  0.3476
 3871SOL    HW113054   6.904   1.952  10.231 -1.0429 -1.8178 -1.3543
 3871SOL    HW213055   6.803   1.997  10.128 -2.2304  0.5292  0.7207
 3872SOL     OW13056   5.308   2.252   4.514  0.4394 -0.3372 -1.2880
 3872SOL    HW113057   5.319   2.158   4.531 -3.3921 -0.6910  0.2928
 3872SOL    HW213058   5.232   2.258   4.457  0.1876  1.8491 -0.8235
 3873SOL     OW13059   7.147   4.551   2.317  0.5537 -0.1291 -0.3414
 3873SOL    HW113060   7.221   4.541   2.257  0.7772 -0.3132 -0.0409
 3873SOL    HW213061   7.094   4.473   2.304 -0.9631  1.1527 -2.3932
 3874SOL     OW13062   0.093   2.869   1.665 -0.0573  0.5609 -0.0685
 3874SOL    HW113063   0.119   2.784   1.700  0.9076  0.8975  0.0560
 3874SOL    HW213064  -0.002   2.871   1.675 -0.1650 -0.7833 -0.7201
 3875SOL     OW13065   0.310   4.263   6.628 -0.5392 -0.3544  0.1167
 3875SOL    HW113066   0.233   4.247   6.682 -1.2977 -1.1903 -1.1613
 3875SOL    HW213067   0.310   4.193   6.563 -1.9150  2.6101 -3.4279
 3876SOL     OW13068   5.711   2.846   4.080 -0.5516 -0.0657 -0.2518
 3876SOL    HW113069   5.675   2.768   4.123 -1.7763  1.2898  1.3016
 3876SOL    HW213070   5.733   2.816   3.992 -0.6163 -2.2549  0.4088
 3877SOL     OW13071   6.800   2.730   4.431  0.3246  0.3839 -0.2899
 3877SOL    HW113072   6.826   2.769   4.347  0.2411  0.8521 -0.1037
 3877SOL    HW213073   6.804   2.803   4.493  0.8107 -0.0562  0.2019
 3878SOL     OW13074   3.568   6.338   5.764  0.2910  0.1788 -0.4349
 3878SOL    HW113075   3.654   6.321   5.728  0.8586 -0.3267  1.0747
 3878SOL    HW213076   3.548   6.428   5.737  0.5876 -0.2315 -2.0958
 3879SOL     OW13077   3.465   6.799   7.227 -0.2980 -0.1816  0.6104
 3879SOL    HW113078   3.393   6.847   7.268 -0.8755 -1.4877  1.2129
 3879SOL    HW213079   3.454   6.814   7.133 -0.6002  0.6474  0.7702
 3880SOL     OW13080   1.751   7.280  10.420 -0.0466  0.0216  0.3351
 3880SOL    HW113081   1.710   7.204  10.462 -1.9219  0.9468  0.2907
 3880SOL    HW213082   1.845   7.267  10.433 -0.3078 -2.2618  0.3870
 3881SOL     OW13083   0.843   4.909   2.434 -0.6186 -0.3137  0.6654
 3881SOL    HW113084   0.859   4.873   2.521  1.4690 -1.9460 -0.2901
 3881SOL    HW213085   0.798   4.839   2.387 -2.5999  0.9095  0.6545
 3882SOL     OW13086   6.439   5.154   9.888  0.7921 -0.0525 -0.6535
 3882SOL    HW113087   6.480   5.240   9.896 -1.4020  1.1593 -1.5425
 3882SOL    HW213088   6.416   5.147   9.795 -0.6100 -0.8364 -0.2762
 3883SOL     OW13089   7.195   0.178   9.869 -0.2035 -0.2620 -0.4710
 3883SOL    HW113090   7.190   0.230   9.789  1.0801  1.7670  0.6759
 3883SOL    HW213091   7.116   0.200   9.918  0.1623  0.3739 -0.1500
 3884SOL     OW13092   6.274   1.874  11.772 -0.3886 -0.6767  0.4881
 3884SOL    HW113093   6.185   1.898  11.797 -0.2801 -1.5882  1.8279
 3884SOL    HW213094   6.302   1.811  11.838  1.5459  0.1736  0.5461
 3885SOL     OW13095   4.872   3.046   5.815  0.3880 -0.0467  0.0368
 3885SOL    HW113096   4.927   2.991   5.761 -1.6361  0.8729 -3.2196
 3885SOL    HW213097   4.802   2.988   5.845  0.8251 -0.2674  0.6534
 3886SOL     OW13098   1.327   6.964   5.589 -0.3399  0.0663  0.6265
 3886SOL    HW113099   1.395   6.936   5.528 -1.4838 -0.2569 -0.5455
 3886SOL    HW213100   1.316   6.889   5.649  0.0637 -0.0212  0.5926
 3887SOL     OW13101   4.703   4.861   0.547  0.1238 -0.1358 -0.6084
 3887SOL    HW113102   4.764   4.933   0.527  0.6603 -0.3471  0.2201
 3887SOL    HW213103   4.616   4.899   0.531  0.4727 -0.2354 -3.1187
 3888SOL     OW13104   2.214   7.413   6.248 -0.4750 -0.2072  0.6680
 3888SOL    HW113105   2.133   7.458   6.226  0.7510  1.6502 -0.4535
 3888SOL    HW213106   2.283   7.470   6.213  1.2412 -3.0735 -1.0764
 3889SOL     OW13107   4.780   6.948   7.628 -0.0866 -0.2677 -0.8499
 3889SOL    HW113108   4.828   6.876   7.587  0.9628  0.3977 -0.8547
 3889SOL    HW213109   4.762   7.008   7.555 -0.7015 -0.3938 -0.8015
 3890SOL     OW13110   0.092   0.502  12.355 -0.0740  0.1991 -0.1365
 3890SOL    HW113111   0.065   0.428  12.409  2.1083 -0.2024  0.4805
 3890SOL    HW213112   0.103   0.465  12.267  0.0893  0.0005 -0.0330
 3891SOL     OW13113   7.058   6.914   5.295 -0.5430 -0.3647 -0.2934
 3891SOL    HW113114   7.110   6.973   5.242 -1.3269  1.5445  0.9580
 3891SOL    HW213115   7.068   6.829   5.253  2.2352  0.2202 -1.0246
 3892SOL     OW13116   3.747   2.936  11.577  0.5918  0.5230  0.2814
 3892SOL    HW113117   3.671   2.959  11.524  0.6339 -0.3341 -0.1668
 3892SOL    HW213118   3.820   2.934  11.515  0.7410  0.0395  0.4655
 3893SOL     OW13119   1.104   0.260   0.599  0.0827 -0.1667  0.0840
 3893SOL    HW113120   1.075   0.219   0.517 -1.1937  0.2270  0.3098
 3893SOL    HW213121   1.047   0.221   0.666  0.4364  0.2578  0.6342
 3894SOL     OW13122   7.733   7.307  12.200 -0.8714  0.3706  0.8167
 3894SOL    HW113123   7.809   7.353  12.164 -0.2092  0.4292  2.2272
 3894SOL    HW213124   7.692   7.371  12.258 -1.0699 -0.1843  1.3007
 3895SOL     OW13125   6.463   3.210   6.199  0.2582 -0.4973  0.4609
 3895SOL    HW113126   6.418   3.126   6.197  2.0469 -1.5303  1.3380
 3895SOL    HW213127   6.440   3.247   6.285  0.5140 -0.7253  0.6325
 3896SOL     OW13128   2.624   1.355   8.301 -0.0098 -0.2855  0.8370
 3896SOL    HW113129   2.718   1.347   8.282 -0.1477 -3.2223  0.9757
 3896SOL    HW213130   2.581   1.340   8.216 -0.4060  1.7643  0.6224
 3897SOL     OW13131   4.127   4.024   8.488  0.3581  0.3535 -0.0173
 3897SOL    HW113132   4.132   3.938   8.529 -0.1328  0.8117  1.0358
 3897SOL    HW213133   4.034   4.038   8.471  0.5033  0.3918 -0.8182
 3898SOL     OW13134   5.322   2.559   3.992 -0.5272 -0.2790 -0.4102
 3898SOL    HW113135   5.355   2.604   3.914 -1.3758 -0.5208 -0.9244
 3898SOL    HW213136   5.306   2.469   3.962  0.3868 -0.7246  0.3921
 3899SOL     OW13137   3.684   2.721   2.280 -0.0933 -0.2859 -0.6099
 3899SOL    HW113138   3.773   2.731   2.313 -0.0654  0.9745 -1.0259
 3899SOL    HW213139   3.694   2.691   2.190 -0.1596 -2.8135  0.1444
 3900SOL     OW13140   0.414   6.645  11.533 -0.4803  0.5522 -0.1416
 3900SOL    HW113141   0.432   6.723  11.586 -0.4920  0.8858 -0.6150
 3900SOL    HW213142   0.343   6.600  11.579 -1.7485  1.7830 -0.7916
 3901SOL     OW13143   4.169   1.177   4.615  0.4254 -0.5727  0.3732
 3901SOL    HW113144   4.163   1.250   4.676  0.5950 -0.5590  0.3727
 3901SOL    HW213145   4.249   1.192   4.566 -0.2364 -0.0251 -0.5807
 3902SOL     OW13146   2.017   3.578  10.917  0.0455  0.0800 -0.0381
 3902SOL    HW113147   2.093   3.611  10.965 -0.0746 -1.6173  1.4756
 3902SOL    HW213148   1.961   3.654  10.905  0.8523  0.8946  1.0962
 3903SOL     OW13149   4.537   7.585   1.948  0.8035  0.0432 -0.3722
 3903SOL    HW113150   4.496   7.513   1.995  1.2017 -0.2524 -0.4675
 3903SOL    HW213151   4.470   7.616   1.888  0.4378  0.1330  0.0746
 3904SOL     OW13152   7.394   1.099   3.299 -0.4384  0.1808 -0.0114
 3904SOL    HW113153   7.315   1.097   3.352 -1.0162  0.5575 -0.8357
 3904SOL    HW213154   7.373   1.158   3.226 -0.5489 -2.1258 -1.9871
 3905SOL     OW13155   2.475   4.521   0.479 -0.0242  0.8146 -0.5029
 3905SOL    HW113156   2.564   4.487   0.471 -0.1371  0.5771 -0.7423
 3905SOL    HW213157   2.445   4.531   0.389 -0.2950  0.7540 -0.4190
 3906SOL     OW13158   7.790   4.625   3.316  0.0284 -0.2521  0.5031
 3906SOL    HW113159   7.728   4.613   3.388 -1.0353  2.6638  0.2071
 3906SOL    HW213160   7.735   4.634   3.238  0.8439  1.3792  0.0745
 3907SOL     OW13161   4.800   6.809   3.509  0.9951  0.1235 -0.0242
 3907SOL    HW113162   4.886   6.782   3.476  1.6199  1.2388  0.6423
 3907SOL    HW213163   4.818   6.882   3.567 -0.4898  0.9157 -0.5092
 3908SOL     OW13164   0.088   0.209   5.397  0.2918 -0.4420 -0.0322
 3908SOL    HW113165   0.047   0.260   5.329 -1.5543 -1.1846  0.4556
 3908SOL    HW213166   0.156   0.265   5.433 -0.0805  0.7186 -1.1110
 3909SOL     OW13167   4.055   6.214  11.650  0.0635  0.5907 -0.2954
 3909SOL    HW113168   4.100   6.131  11.665  0.9219  0.9430 -0.8544
 3909SOL    HW213169   3.967   6.189  11.622 -0.1694 -0.1129  0.9686
 3910SOL     OW13170   5.181   1.503   0.414 -0.2136 -0.3067  0.2015
 3910SOL    HW113171   5.092   1.534   0.400 -1.0142 -3.0408 -1.4950
 3910SOL    HW213172   5.170   1.416   0.454  1.5540 -1.4903 -1.6791
 3911SOL     OW13173   3.213   4.626  11.594 -0.0157  0.0627 -0.5155
 3911SOL    HW113174   3.119   4.604  11.596 -0.3079  1.2312  1.0124
 3911SOL    HW213175   3.247   4.588  11.675  0.4763  1.0196 -0.2639
 3912SOL     OW13176   1.395   6.829   4.793  0.0150  0.5749  0.5616
 3912SOL    HW113177   1.371   6.903   4.739 -0.8127  0.2790  0.5108
 3912SOL    HW213178   1.490   6.832   4.798  0.0719  0.8614 -0.5409
 3913SOL     OW13179   1.746   5.859   2.004  0.1187  0.8423  0.5032
 3913SOL    HW113180   1.682   5.910   1.956 -0.4951  0.1702  0.5929
 3913SOL    HW213181   1.757   5.906   2.087 -0.0055  1.1366  0.3559
 3914SOL     OW13182   3.928   3.776  12.243  0.0501 -0.1333  0.2279
 3914SOL    HW113183   3.964   3.864  12.244  0.3064 -0.2072  2.1656
 3914SOL    HW213184   3.986   3.726  12.186 -0.4927  1.0537 -1.4618
 3915SOL     OW13185   1.839   4.786  11.459 -0.0695 -0.3938  0.3499
 3915SOL    HW113186   1.863   4.764  11.549  1.7904 -0.7526 -0.1872
 3915SOL    HW213187   1.888   4.866  11.439 -0.2097 -0.4890 -0.4376
 3916SOL     OW13188   4.462   5.773   5.920  0.3686 -0.2548  0.0711
 3916SOL    HW113189   4.443   5.681   5.902 -0.4724  0.3294 -2.4594
 3916SOL    HW213190   4.549   5.787   5.883 -0.4114  0.4340 -1.5949
 3917SOL     OW13191   1.509   0.498   7.121  0.4572 -0.1663 -0.0580
 3917SOL    HW113192   1.481   0.589   7.128  0.5791  0.1975 -3.0264
 3917SOL    HW213193   1.429   0.449   7.100  0.7836 -0.2899 -1.0942
 3918SOL     OW13194   5.480   5.133   7.084  0.1779 -0.0852 -0.0831
 3918SOL    HW113195   5.570   5.110   7.109  0.4643  0.4069 -0.6333
 3918SOL    HW213196   5.481   5.228   7.076  0.0782 -0.1980 -1.8299
 3919SOL     OW13197   4.934   2.096  11.443 -0.7374  0.3674  0.0477
 3919SOL    HW113198   4.868   2.152  11.484  0.1189  2.2642 -1.0539
 3919SOL    HW213199   5.007   2.155  11.423 -0.0074 -1.0312 -1.6620
 3920SOL     OW13200   5.030   1.973  10.747 -0.2983 -0.0235 -0.6300
 3920SOL    HW113201   5.006   1.921  10.824 -0.5435 -1.9039 -1.9052
 3920SOL    HW213202   4.965   1.948  10.681  1.3533 -0.3496 -2.1996
 3921SOL     OW13203   7.651   4.859   5.502  0.3324 -0.6002  0.4488
 3921SOL    HW113204   7.596   4.782   5.483  0.8240 -1.1512  1.2162
 3921SOL    HW213205   7.716   4.827   5.564  1.2980  0.1447 -0.1544
 3922SOL     OW13206   0.710   7.891   8.418  0.5265 -0.2351 -0.1913
 3922SOL    HW113207   0.743   7.932   8.498  1.7034  0.5709 -1.0522
 3922SOL    HW213208   0.616   7.908   8.419 -0.1289 -3.0584  2.6053
 3923SOL     OW13209   4.153   0.765  10.777 -0.0180  0.0835 -0.3961
 3923SOL    HW113210   4.169   0.694  10.839 -1.7216  0.7813  0.9189
 3923SOL    HW213211   4.233   0.818  10.781 -0.0512  0.0780  1.1874
 3924SOL     OW13212   6.000   0.742   9.954 -0.7910 -0.3931  0.0624
 3924SOL    HW113213   6.000   0.652   9.922 -0.8329 -0.9361  1.5076
 3924SOL    HW213214   6.043   0.737  10.040 -0.2679  1.0653 -0.0831
 3925SOL     OW13215   4.857   3.020   9.115  0.1888  0.5359  0.1960
 3925SOL    HW113216   4.880   3.022   9.207 -0.2936  0.1324  0.3339
 3925SOL    HW213217   4.769   2.982   9.113  0.2596  0.3876 -0.4392
 3926SOL     OW13218   5.481   6.962   0.351  0.0309 -0.1796 -0.1782
 3926SOL    HW113219   5.450   7.050   0.328 -0.6000 -0.3768 -0.0817
 3926SOL    HW213220   5.404   6.918   0.386  1.1831  0.5524  3.7390
 3927SOL     OW13221   7.692   5.333   7.432  0.9542 -0.0430  0.1205
 3927SOL    HW113222   7.605   5.329   7.391 -0.0971  1.9527  1.9211
 3927SOL    HW213223   7.697   5.254   7.486  0.9290 -0.9409 -1.1523
 3928SOL     OW13224   3.150   4.041  12.155  0.2352  0.5489 -0.4512
 3928SOL    HW113225   3.115   4.037  12.066  1.0168  0.2047 -0.7509
 3928SOL    HW213226   3.155   3.949  12.183  0.2332  0.6407 -0.1474
 3929SOL     OW13227   5.322   6.250   5.820  0.4908 -0.0504 -0.0028
 3929SOL    HW113228   5.233   6.243   5.786  0.4722 -2.3492  0.3872
 3929SOL    HW213229   5.378   6.236   5.743  0.4832 -0.8798  0.1366
 3930SOL     OW13230   3.247   6.837   3.872  0.0892 -0.4057 -0.1082
 3930SOL    HW113231   3.178   6.882   3.824  0.9502  1.4632  0.3113
 3930SOL    HW213232   3.293   6.786   3.806 -0.3560  0.0556 -0.7826
 3931SOL     OW13233   5.305   4.190  12.169  0.5486  0.0484 -0.7638
 3931SOL    HW113234   5.357   4.251  12.220  0.7949 -0.7464 -0.0457
 3931SOL    HW213235   5.218   4.229  12.166  0.2367 -0.4014  1.2044
 3932SOL     OW13236   3.384   0.650   5.963  0.1914 -0.7625  0.4061
 3932SOL    HW113237   3.469   0.612   5.984  0.3020  0.7318  3.1486
 3932SOL    HW213238   3.402   0.713   5.893  1.5614  0.1477  1.5140
 3933SOL     OW13239   5.706   6.799   3.967 -0.6719 -0.0911 -0.2447
 3933SOL    HW113240   5.728   6.831   4.054 -1.6658  0.8940 -0.3339
 3933SOL    HW213241   5.665   6.713   3.982 -1.6083  0.4455  0.3346
 3934SOL     OW13242   6.349   7.093   9.642 -0.2073 -0.1819 -0.5282
 3934SOL    HW113243   6.309   7.093   9.729  0.1760  1.2638 -0.3245
 3934SOL    HW213244   6.283   7.054   9.585 -0.1211 -1.9832  0.5404
 3935SOL     OW13245   2.324   6.596   9.700 -0.2350 -0.3278 -0.2500
 3935SOL    HW113246   2.366   6.513   9.678 -0.3375 -0.3428 -0.3973
 3935SOL    HW213247   2.290   6.584   9.788 -0.5093 -0.5477 -0.3848
 3936SOL     OW13248   3.745   6.581  12.034  0.2297 -0.2858  0.2842
 3936SOL    HW113249   3.798   6.506  12.007 -0.9404 -1.2297  0.5573
 3936SOL    HW213250   3.716   6.560  12.122 -0.1575  0.4671  0.3476
 3937SOL     OW13251   0.844   4.896   7.807  0.3330  0.4065  0.4170
 3937SOL    HW113252   0.829   4.939   7.891  0.9427 -0.2066  0.8489
 3937SOL    HW213253   0.785   4.821   7.808 -0.7563  1.2108 -0.3511
 3938SOL     OW13254   0.319   4.147   3.768  0.0355 -0.4189 -0.6160
 3938SOL    HW113255   0.225   4.150   3.748  0.1983 -0.1827 -1.3755
 3938SOL    HW213256   0.346   4.058   3.746 -0.0051 -0.4805 -0.4169
 3939SOL     OW13257   1.940   3.795  10.116 -0.0610 -0.0067 -0.0018
 3939SOL    HW113258   1.944   3.889  10.098 -3.4442  0.2055 -0.2768
 3939SOL    HW213259   1.983   3.785  10.201  0.2525  1.8106  0.0883
 3940SOL     OW13260   3.136   3.676   2.483 -0.7583  0.3520 -0.3310
 3940SOL    HW113261   3.177   3.618   2.548  1.5270 -1.5002 -3.2004
 3940SOL    HW213262   3.074   3.621   2.436  1.6593 -0.1193 -3.3017
 3941SOL     OW13263   6.816   3.396   7.293 -0.3184  0.2760 -0.1700
 3941SOL    HW113264   6.839   3.483   7.259 -0.7896  0.3640 -0.2675
 3941SOL    HW213265   6.760   3.358   7.225 -0.7592  0.2078  0.2324
 3942SOL     OW13266   6.882   5.310   1.396 -0.1348  0.0768 -0.1559
 3942SOL    HW113267   6.974   5.321   1.420 -0.1535  0.2215 -0.1549
 3942SOL    HW213268   6.881   5.231   1.342 -0.0317 -0.0134 -0.0283
 3943SOL     OW13269   3.622   1.395   8.690 -0.0150 -0.3572 -0.3286
 3943SOL    HW113270   3.565   1.338   8.637  1.4624 -1.5155 -0.7219
 3943SOL    HW213271   3.679   1.335   8.738  0.2917  0.7553  0.7713
 3944SOL     OW13272   4.811   5.482   1.599 -0.2042  0.0644 -0.1788
 3944SOL    HW113273   4.856   5.399   1.614 -0.4594 -0.1841 -0.7661
 3944SOL    HW213274   4.839   5.538   1.671  1.5821  0.1427 -0.8952
 3945SOL     OW13275   2.029   7.695   7.903 -0.1846 -0.0298  0.3249
 3945SOL    HW113276   2.020   7.752   7.827 -0.6306  0.2800  0.6057
 3945SOL    HW213277   1.975   7.736   7.971  0.2793 -0.2508  0.8374
 3946SOL     OW13278   6.825   3.254   8.781  0.5441  0.6852  0.2147
 3946SOL    HW113279   6.850   3.170   8.742  2.0241 -0.0139  2.4685
 3946SOL    HW213280   6.729   3.252   8.784  0.5138 -0.4469 -0.6820
 3947SOL     OW13281   6.743   5.864   7.746 -0.3016  0.1805 -0.0709
 3947SOL    HW113282   6.761   5.774   7.720 -0.0994  0.4601 -0.9150
 3947SOL    HW213283   6.650   5.864   7.769 -0.2749 -0.2618  0.0427
 3948SOL     OW13284   5.643   0.529   7.096  0.0710 -0.3507  0.2862
 3948SOL    HW113285   5.625   0.520   7.190 -1.0901  0.8995  0.2229
 3948SOL    HW213286   5.733   0.561   7.092 -0.3400  1.0066  1.0769
 3949SOL     OW13287   5.334   6.984  11.800 -0.3732 -0.4884  0.1445
 3949SOL    HW113288   5.344   6.955  11.890  0.3261  0.0866  0.2586
 3949SOL    HW213289   5.419   6.966  11.759 -0.5759 -0.4321 -0.3083
 3950SOL     OW13290   7.135   7.771   7.370  0.2847  0.1295 -0.1255
 3950SOL    HW113291   7.169   7.729   7.291  1.5960 -0.3842  0.6838
 3950SOL    HW213292   7.080   7.704   7.411  0.6930 -0.0801  0.0856
 3951SOL     OW13293   0.920   6.121   4.531  0.0853  0.1366 -0.0126
 3951SOL    HW113294   0.850   6.110   4.595 -0.5283  1.4541 -0.4304
 3951SOL    HW213295   0.928   6.034   4.491  0.0010 -0.5270  1.3295
 3952SOL     OW13296   1.630   0.402   2.247 -0.2528 -0.1191 -0.0025
 3952SOL    HW113297   1.544   0.441   2.231 -0.2689  0.1334  0.6823
 3952SOL    HW213298   1.624   0.314   2.209 -1.1022 -0.4274  0.7986
 3953SOL     OW13299   7.329   4.626   9.715  0.1063 -0.2822 -0.0677
 3953SOL    HW113300   7.344   4.677   9.795  0.8800  0.2320 -0.5259
 3953SOL    HW213301   7.338   4.535   9.743  1.6059 -0.0715  0.2038
 3954SOL     OW13302   4.159   1.488   6.078 -0.1022 -0.2265  0.1463
 3954SOL    HW113303   4.191   1.503   6.167  0.9014  0.3183 -0.2900
 3954SOL    HW213304   4.147   1.576   6.042  0.5636 -0.4376 -0.6199
 3955SOL     OW13305   7.073   5.601   0.059 -0.6352  0.5006 -0.4086
 3955SOL    HW113306   7.109   5.538   0.121 -1.0645  1.6676  1.0992
 3955SOL    HW213307   7.119   5.584  -0.023 -0.3941 -1.4153  0.0839
 3956SOL     OW13308   7.419   7.824   7.166  0.0031 -0.1464 -0.3390
 3956SOL    HW113309   7.359   7.753   7.143  0.3348 -1.3233  2.1348
 3956SOL    HW213310   7.479   7.785   7.229  1.0567  2.0038  0.0802
 3957SOL     OW13311   1.202   3.237   0.804  0.5519 -1.2737 -0.0881
 3957SOL    HW113312   1.253   3.181   0.746  0.1344 -0.9249 -0.7940
 3957SOL    HW213313   1.267   3.283   0.856  0.9361 -1.3819 -0.4684
 3958SOL     OW13314   7.228   6.010   3.764 -0.1351  0.7558  0.4953
 3958SOL    HW113315   7.238   5.917   3.786  0.2509  0.4939 -0.7269
 3958SOL    HW213316   7.273   6.020   3.680 -1.1739  1.8009  0.0342
 3959SOL     OW13317   5.856   5.301   3.785 -0.1115  0.3441 -0.3826
 3959SOL    HW113318   5.866   5.211   3.754 -1.2157  0.4535 -1.1394
 3959SOL    HW213319   5.888   5.299   3.875 -1.0683 -1.0677 -0.0332
 3960SOL     OW13320   1.804   6.187   3.217 -0.0645 -0.1119  0.1499
 3960SOL    HW113321   1.814   6.097   3.188  0.6812 -0.8341  2.4096
 3960SOL    HW213322   1.885   6.231   3.189  0.5047 -0.7057  0.8164
 3961SOL     OW13323   2.687   4.913   7.106 -0.6163  0.3353 -0.5087
 3961SOL    HW113324   2.743   4.840   7.079  0.1939  1.1155 -0.9785
 3961SOL    HW213325   2.614   4.910   7.044 -1.3444 -0.9303  0.3500
 3962SOL     OW13326   3.329   6.839  10.941  0.4806  0.0921  0.2175
 3962SOL    HW113327   3.422   6.818  10.949  0.1642 -0.9022  1.5553
 3962SOL    HW213328   3.298   6.844  11.032 -1.1997 -1.6035 -0.2283
 3963SOL     OW13329   6.929   7.363   1.760  0.4423 -0.5245 -0.4340
 3963SOL    HW113330   6.855   7.411   1.722  0.8249 -1.4331 -2.4195
 3963SOL    HW213331   6.910   7.361   1.854 -1.1796  0.7274 -0.6907
 3964SOL     OW13332   4.497   7.746  10.294  0.7538 -0.8534 -0.1921
 3964SOL    HW113333   4.463   7.825  10.253  1.0413 -0.4460  0.3352
 3964SOL    HW213334   4.424   7.684  10.292  0.2002 -0.2290  0.2920
 3965SOL     OW13335   6.869   6.677   4.023 -0.4516  0.2588  0.1452
 3965SOL    HW113336   6.794   6.707   4.074 -0.0692  1.8364 -0.1717
 3965SOL    HW213337   6.850   6.706   3.933  1.2314  2.1568  0.3290
 3966SOL     OW13338   7.142   6.898   9.181 -0.8222 -0.1152 -0.0763
 3966SOL    HW113339   7.224   6.944   9.162 -0.5292 -0.3463  0.5757
 3966SOL    HW213340   7.077   6.942   9.127 -0.2896  0.1501 -0.5171
 3967SOL     OW13341   2.902   2.637   2.444 -0.1520  0.3189 -0.5192
 3967SOL    HW113342   2.987   2.622   2.403 -0.1854 -1.1074 -0.1203
 3967SOL    HW213343   2.919   2.702   2.513  1.1325 -1.6365  1.1238
 3968SOL     OW13344   6.354   2.565  10.819  1.0254 -0.0684 -0.4049
 3968SOL    HW113345   6.324   2.498  10.758  1.0798 -0.3769 -0.0944
 3968SOL    HW213346   6.429   2.606  10.775  0.7863  0.0151 -0.7375
 3969SOL     OW13347   0.515   2.518   3.990  0.2108  0.0379 -0.0310
 3969SOL    HW113348   0.502   2.511   3.895 -1.4154  1.0392  0.0868
 3969SOL    HW213349   0.466   2.445   4.027  0.9242 -0.4093  0.0514
 3970SOL     OW13350   0.847   6.202   7.548 -0.0099 -0.1782  0.0768
 3970SOL    HW113351   0.931   6.240   7.575 -0.3347  1.2958 -0.8514
 3970SOL    HW213352   0.793   6.204   7.626 -0.4234  2.5565 -0.1824
 3971SOL     OW13353   2.491   2.960  11.529 -0.3806 -0.2860  0.4776
 3971SOL    HW113354   2.571   2.975  11.479 -0.3719  0.4978  0.7067
 3971SOL    HW213355   2.421   2.985  11.469 -0.3927  0.1769  0.6788
 3972SOL     OW13356   2.680   5.373   4.135  0.2482 -0.1559  0.2953
 3972SOL    HW113357   2.726   5.452   4.106  0.2856 -0.4471 -0.4550
 3972SOL    HW213358   2.737   5.335   4.202  1.1366 -0.5419 -0.6615
 3973SOL     OW13359   0.361   3.046   9.947  0.2845  0.3371 -0.0635
 3973SOL    HW113360   0.421   3.050   9.872 -1.2537  1.1740 -1.2897
 3973SOL    HW213361   0.416   3.017  10.019  1.5165 -2.1096 -1.8381
 3974SOL     OW13362   3.086   4.729  11.250  0.0667  0.3612  0.1126
 3974SOL    HW113363   3.143   4.783  11.305  1.8663 -0.1773 -1.1158
 3974SOL    HW213364   3.014   4.704  11.307 -0.9390  4.0694  0.7432
 3975SOL     OW13365   1.619   5.130   3.631 -0.4625  0.4124 -0.6634
 3975SOL    HW113366   1.677   5.162   3.700 -0.9249  2.7735 -1.2902
 3975SOL    HW213367   1.560   5.204   3.613 -1.7171 -0.8815 -2.1274
 3976SOL     OW13368   4.351   6.153   4.675  0.4966 -0.1328 -0.2069
 3976SOL    HW113369   4.310   6.108   4.601  2.0459 -0.5477 -0.8543
 3976SOL    HW213370   4.382   6.082   4.732  2.4400  0.0460 -0.9493
 3977SOL     OW13371   2.640   3.046  10.150  0.0535 -0.4489  0.2038
 3977SOL    HW113372   2.664   3.138  10.157  0.5822 -0.6366  1.0223
 3977SOL    HW213373   2.682   3.016  10.070 -1.2189  0.3295 -0.7946
 3978SOL     OW13374   1.381   7.518  10.134  0.6440  0.1125 -0.3140
 3978SOL    HW113375   1.377   7.449  10.200 -1.7132 -0.3802 -0.8887
 3978SOL    HW213376   1.414   7.595  10.181 -2.1933  0.1462  1.8395
 3979SOL     OW13377   4.159   2.964   1.553  0.2666 -0.4270 -0.2804
 3979SOL    HW113378   4.185   2.918   1.633 -1.4057 -0.6859  0.1620
 3979SOL    HW213379   4.167   3.057   1.576  1.8549 -0.4685 -0.5565
 3980SOL     OW13380   0.968   0.832   8.506  0.0298  0.1587 -0.0362
 3980SOL    HW113381   0.956   0.804   8.597  1.7685 -1.4109 -0.2376
 3980SOL    HW213382   1.022   0.911   8.512 -1.0347  0.8838  0.3236
 3981SOL     OW13383   2.997   6.376   1.932  0.2539  0.3225  0.4564
 3981SOL    HW113384   3.064   6.444   1.941 -0.4325  1.0495  0.1744
 3981SOL    HW213385   2.984   6.343   2.021 -0.8467  1.9752  0.9471
 3982SOL     OW13386   4.614   7.707  10.883  0.6009  0.1129 -0.1984
 3982SOL    HW113387   4.600   7.630  10.827  1.5879  0.0322 -0.3641
 3982SOL    HW213388   4.569   7.686  10.965  0.6456 -0.5351 -0.3351
 3983SOL     OW13389   7.580   5.371   0.385  0.2331 -0.0725  0.2938
 3983SOL    HW113390   7.523   5.447   0.374 -0.6833 -0.5299  1.6044
 3983SOL    HW213391   7.627   5.364   0.303 -2.4625 -0.3473 -1.3639
 3984SOL     OW13392   6.466   1.081  12.223  0.4561 -0.2104 -0.4327
 3984SOL    HW113393   6.385   1.105  12.268 -0.5506 -0.9930 -1.7452
 3984SOL    HW213394   6.439   1.060  12.134  2.0018 -1.2154 -0.7184
 3985SOL     OW13395   1.559   3.044   9.048  0.2255  0.1022 -0.4786
 3985SOL    HW113396   1.487   3.018   8.990 -0.1545  1.1138 -0.4774
 3985SOL    HW213397   1.629   3.072   8.989  0.1106  0.4192 -0.4689
 3986SOL     OW13398   5.776   0.873  11.620  0.0116 -0.2284 -0.4360
 3986SOL    HW113399   5.831   0.876  11.541 -0.3061 -1.0991 -0.6977
 3986SOL    HW213400   5.687   0.860  11.587 -0.1921 -0.0658  0.0442
 3987SOL     OW13401   1.523   0.825   4.971  0.4617  0.6440 -0.1688
 3987SOL    HW113402   1.530   0.912   5.011 -2.2078  0.1948  1.5405
 3987SOL    HW213403   1.499   0.842   4.880 -0.3600  1.7127  0.2251
 3988SOL     OW13404   0.790   2.156   4.455 -0.0054  0.3988 -0.0291
 3988SOL    HW113405   0.863   2.213   4.433  0.8171  0.3273  2.2474
 3988SOL    HW213406   0.721   2.217   4.482 -0.6989  0.4423 -1.7366
 3989SOL     OW13407   4.654   0.733   2.503 -0.2394  0.3178 -0.4438
 3989SOL    HW113408   4.647   0.668   2.433  0.3972 -0.4269  0.1656
 3989SOL    HW213409   4.739   0.774   2.488  0.3827 -0.5794  0.4861
 3990SOL     OW13410   0.497   5.651   5.985 -0.3037 -0.2771  0.0666
 3990SOL    HW113411   0.437   5.673   6.056 -0.5534 -2.9066  0.7847
 3990SOL    HW213412   0.466   5.704   5.911 -1.4563  0.8331  1.2836
 3991SOL     OW13413   3.393   2.024   3.006  0.6705 -0.8464  0.0265
 3991SOL    HW113414   3.303   1.994   3.018 -0.2862  1.3156 -1.2585
 3991SOL    HW213415   3.409   2.014   2.912  1.1000  0.5223 -0.0565
 3992SOL     OW13416   1.755   3.239   6.929  0.4394 -0.8823 -0.1926
 3992SOL    HW113417   1.797   3.173   6.984 -0.1036 -2.0264 -1.0882
 3992SOL    HW213418   1.678   3.195   6.894  1.1863 -0.5173 -2.4918
 3993SOL     OW13419   5.534   6.952   6.292 -0.1019 -0.5943 -0.1606
 3993SOL    HW113420   5.538   7.014   6.364  0.2657  0.9701 -1.4626
 3993SOL    HW213421   5.441   6.931   6.282 -0.3119  0.3134 -0.1495
 3994SOL     OW13422   7.845   7.119   7.974 -0.5213  0.5691  0.0228
 3994SOL    HW113423   7.853   7.132   7.880 -1.7513 -1.2024 -0.3997
 3994SOL    HW213424   7.768   7.170   7.999  0.8282  2.4954  0.4715
 3995SOL     OW13425   6.285   3.598   9.839  0.0003  0.8793 -0.1942
 3995SOL    HW113426   6.324   3.657   9.774  1.0555 -0.8215 -1.1822
 3995SOL    HW213427   6.201   3.573   9.801  0.2764  0.4923 -0.5634
 3996SOL     OW13428   3.676   1.369   2.664  0.0704  0.1282 -0.2674
 3996SOL    HW113429   3.626   1.396   2.742 -0.6239  0.9206 -0.9710
 3996SOL    HW213430   3.723   1.448   2.637 -0.2018  0.0398 -1.0246
 3997SOL     OW13431   3.630   7.040   7.213  0.0355 -0.6591  0.3142
 3997SOL    HW113432   3.704   7.025   7.271  0.5452  1.4378  0.2662
 3997SOL    HW213433   3.561   6.983   7.247  0.5846 -0.1102  2.4841
 3998SOL     OW13434   1.794   1.881   1.900 -0.2693 -0.4806 -0.3530
 3998SOL    HW113435   1.704   1.849   1.907 -0.7232  0.4965 -1.5283
 3998SOL    HW213436   1.818   1.901   1.991 -0.9169 -1.5434  0.0806
 3999SOL     OW13437   7.355   7.051   2.950 -0.3300 -0.0823  0.4959
 3999SOL    HW113438   7.415   7.081   3.018 -0.6499  0.9226  0.3644
 3999SOL    HW213439   7.393   7.086   2.869  0.4778 -1.9330  0.0319
 4000SOL     OW13440   7.370   7.091   6.356  0.3379  0.4872 -0.2253
 4000SOL    HW113441   7.444   7.109   6.297  0.5496 -1.6576 -0.7105
 4000SOL    HW213442   7.294   7.091   6.298  0.5048 -1.2885 -0.5031
 4001SOL     OW13443   0.528   1.146  11.918 -0.1477 -0.7198 -0.0968
 4001SOL    HW113444   0.613   1.129  11.878 -0.1733  0.1393 -0.5324
 4001SOL    HW213445   0.547   1.164  12.010  0.1157 -0.7473 -0.1472
 4002SOL     OW13446   5.212   4.545  12.269 -0.2854  0.3799  0.4354
 4002SOL    HW113447   5.276   4.475  12.255 -1.3129 -0.1844 -1.8865
 4002SOL    HW213448   5.260   4.612  12.318  0.5601 -2.1574  3.4369
 4003SOL     OW13449   6.778   1.278   2.220  0.0460  0.7562 -0.8662
 4003SOL    HW113450   6.810   1.281   2.130  1.5158  1.7934 -0.3414
 4003SOL    HW213451   6.744   1.365   2.236 -0.8716  0.3669 -0.6181
 4004SOL     OW13452   1.844   5.457   8.684 -0.3737 -0.0469 -0.6937
 4004SOL    HW113453   1.914   5.522   8.684 -0.8230  0.5356  1.5704
 4004SOL    HW213454   1.885   5.376   8.716 -0.6768  0.2694  0.5417
 4005SOL     OW13455   3.953   1.666   9.689 -0.0018 -0.3039  0.8229
 4005SOL    HW113456   3.881   1.603   9.701 -1.0513  0.8219  0.6966
 4005SOL    HW213457   3.991   1.643   9.604 -0.8965 -0.2818  0.4015
 4006SOL     OW13458   1.402   4.080  11.859 -0.1993 -0.0003  0.2262
 4006SOL    HW113459   1.332   4.083  11.794  1.0513 -0.4891 -1.2173
 4006SOL    HW213460   1.357   4.071  11.943 -1.8583  0.1468 -0.6038
 4007SOL     OW13461   1.644   5.232   3.014 -0.4706  0.2052  0.4328
 4007SOL    HW113462   1.569   5.242   2.956 -0.6785  0.5544  0.7602
 4007SOL    HW213463   1.655   5.137   3.022  0.3415  0.1359 -1.1588
 4008SOL     OW13464   6.968   2.137  10.508  0.2411  0.4264 -1.0555
 4008SOL    HW113465   7.048   2.149  10.559 -0.7667  0.1676  0.6569
 4008SOL    HW213466   6.969   2.044  10.484 -0.7633 -0.2575  1.2340
 4009SOL     OW13467   7.479   1.939   2.572 -0.8962 -0.2966  0.1995
 4009SOL    HW113468   7.460   1.861   2.519 -2.1582 -0.1170  0.3721
 4009SOL    HW213469   7.498   2.007   2.507  3.8625 -1.4606 -0.0338
 4010SOL     OW13470   7.515   7.453   9.020  0.7611 -1.0922  0.4898
 4010SOL    HW113471   7.496   7.381   8.959  2.4086 -0.7299 -0.5155
 4010SOL    HW213472   7.610   7.454   9.027  0.7416  0.6165  0.9591
 4011SOL     OW13473   5.057   4.438  11.913  0.1200  0.2815 -0.3200
 4011SOL    HW113474   5.015   4.355  11.890  2.0874 -0.3274 -2.0151
 4011SOL    HW213475   4.994   4.481  11.971 -1.5500 -1.7818 -0.4639
 4012SOL     OW13476   6.434   1.955   8.634 -0.1556  0.3946 -0.6307
 4012SOL    HW113477   6.522   1.934   8.665  0.4762 -0.9613 -3.0989
 4012SOL    HW213478   6.422   2.047   8.656  0.8353 -0.0219  1.9859
 4013SOL     OW13479   3.857   4.661   3.887  0.3758 -0.1779  0.6132
 4013SOL    HW113480   3.920   4.676   3.816  0.1175 -0.9563  0.2046
 4013SOL    HW213481   3.828   4.749   3.912  1.1653  0.1609  0.3963
 4014SOL     OW13482   5.303   6.261   0.823 -0.1011 -0.3400 -0.3749
 4014SOL    HW113483   5.337   6.176   0.796 -0.6311 -0.6657 -0.0147
 4014SOL    HW213484   5.375   6.322   0.805  0.8861 -1.0917  0.8411
 4015SOL     OW13485   3.376   4.082   6.788  0.3427 -0.3798 -0.2005
 4015SOL    HW113486   3.338   4.154   6.739  2.4490  0.7770 -0.2441
 4015SOL    HW213487   3.324   4.005   6.762 -1.9544  1.0602 -0.1343
 4016SOL     OW13488   3.348   5.799   1.706 -0.0484  0.0656  0.5339
 4016SOL    HW113489   3.263   5.800   1.750 -0.2754 -1.5475  0.1873
 4016SOL    HW213490   3.384   5.712   1.724  0.0395 -0.5188 -2.0609
 4017SOL     OW13491   3.181   7.617   6.106 -0.4866 -0.4281  0.1244
 4017SOL    HW113492   3.093   7.631   6.142 -0.5506  1.6707 -0.7649
 4017SOL    HW213493   3.175   7.532   6.061 -2.1275 -0.2067 -0.1214
 4018SOL     OW13494   6.467   6.647   2.277 -0.5050  0.3848  0.1153
 4018SOL    HW113495   6.474   6.736   2.312 -0.2958  0.7412 -0.8121
 4018SOL    HW213496   6.405   6.655   2.205  0.3653  0.0111 -0.6907
 4019SOL     OW13497   0.636   5.015   9.769 -0.3591  0.7802  0.4817
 4019SOL    HW113498   0.649   4.961   9.690  0.4151 -1.2839  1.9201
 4019SOL    HW213499   0.724   5.047   9.791 -0.3889  0.4825  1.0610
 4020SOL     OW13500   0.273   6.983   0.189 -0.2519 -0.4161 -0.0854
 4020SOL    HW113501   0.283   6.891   0.215 -0.9820 -0.9353 -1.5065
 4020SOL    HW213502   0.181   7.003   0.207  0.2006  0.4646  1.4121
 4021SOL     OW13503   4.671   2.790  11.403 -0.1380 -0.0617 -0.1903
 4021SOL    HW113504   4.612   2.853  11.362  0.4145 -0.0430 -0.9812
 4021SOL    HW213505   4.745   2.783  11.342  1.4820  1.1450  1.5009
 4022SOL     OW13506   3.688   1.072   9.056  0.6000 -0.5796  0.5978
 4022SOL    HW113507   3.623   1.019   9.103 -0.3661  0.5474  0.6029
 4022SOL    HW213508   3.740   1.113   9.126  0.7813 -0.8384  0.6151
 4023SOL     OW13509   5.628   0.611   9.241 -0.5618 -0.1566 -0.3813
 4023SOL    HW113510   5.602   0.571   9.158  0.3209  0.8064 -1.1448
 4023SOL    HW213511   5.710   0.568   9.263 -0.0970  0.5514 -0.7173
 4024SOL     OW13512   7.776   5.836   5.478  0.4223 -0.3445 -0.1322
 4024SOL    HW113513   7.685   5.804   5.476  0.8427 -1.6475  0.5357
 4024SOL    HW213514   7.774   5.916   5.425 -1.3397  0.2548  0.7478
 4025SOL     OW13515   7.616   4.206   2.722  0.3802 -0.3997  0.5024
 4025SOL    HW113516   7.589   4.168   2.638  0.6502  0.3174  0.0866
 4025SOL    HW213517   7.686   4.268   2.699 -0.3026  0.6259  1.1240
 4026SOL     OW13518   1.848   6.411   4.249  0.2439 -0.1098 -0.0463
 4026SOL    HW113519   1.805   6.380   4.170 -0.4221 -2.0571  1.0169
 4026SOL    HW213520   1.785   6.469   4.291 -0.5040 -1.2159  0.3942
 4027SOL     OW13521   6.684   1.165   1.762  0.6578  0.0870  0.1723
 4027SOL    HW113522   6.693   1.152   1.857  0.2618 -1.1477  0.0657
 4027SOL    HW213523   6.696   1.259   1.749  1.5103  0.1674  1.3560
 4028SOL     OW13524   2.545   7.234   1.254 -0.1217  0.0678  0.2999
 4028SOL    HW113525   2.529   7.141   1.238 -1.9423  0.2654  0.7920
 4028SOL    HW213526   2.488   7.280   1.193  0.4955  0.8700  0.3045
 4029SOL     OW13527   5.857   4.438   7.081  0.0506 -0.0110  0.5559
 4029SOL    HW113528   5.778   4.491   7.067  0.4612  0.3604 -0.4066
 4029SOL    HW213529   5.827   4.367   7.138 -1.0536 -0.0296 -0.0102
 4030SOL     OW13530   2.230   0.181   3.726 -0.3803 -0.1622  0.0329
 4030SOL    HW113531   2.151   0.174   3.780 -0.2000  0.1799  0.3483
 4030SOL    HW213532   2.211   0.129   3.648  0.0425 -2.2250  1.2326
 4031SOL     OW13533   4.830   6.018   5.267 -0.4059  0.3179 -0.0680
 4031SOL    HW113534   4.902   5.957   5.282 -1.2764 -0.7587 -0.1058
 4031SOL    HW213535   4.790   6.030   5.353 -0.2600  0.8202 -0.0677
 4032SOL     OW13536   7.072   5.823   2.298  0.2188  0.1744  0.3425
 4032SOL    HW113537   7.019   5.764   2.245  0.6252  0.2208 -0.1261
 4032SOL    HW213538   7.161   5.809   2.266  0.6070 -0.4869  1.6504
 4033SOL     OW13539   3.591   0.045   0.696 -0.7339 -0.1302 -0.0240
 4033SOL    HW113540   3.575   0.057   0.603 -2.0163  1.2101  0.3401
 4033SOL    HW213541   3.670   0.097   0.713 -0.1182 -0.8965 -0.4559
 4034SOL     OW13542   5.793   5.477   7.727  0.3043  0.1478 -0.6436
 4034SOL    HW113543   5.769   5.389   7.698 -1.9481  0.5989 -0.3822
 4034SOL    HW213544   5.737   5.535   7.675  1.0874  1.3816 -0.1600
 4035SOL     OW13545   4.300   7.580   8.558 -0.0159 -0.0779  0.5343
 4035SOL    HW113546   4.326   7.503   8.609  0.3435  1.4164  2.7556
 4035SOL    HW213547   4.218   7.609   8.598 -0.6148  0.2100 -0.8503
 4036SOL     OW13548   2.430   2.574   4.883  0.4913 -0.1013 -0.6650
 4036SOL    HW113549   2.351   2.566   4.937 -0.7952  1.3885 -2.1879
 4036SOL    HW213550   2.416   2.655   4.833  2.0907 -0.8316 -2.4172
 4037SOL     OW13551   1.950   6.629   9.222 -0.5659  0.3587 -0.6940
 4037SOL    HW113552   1.886   6.630   9.293 -1.1317  0.8389 -1.1973
 4037SOL    HW213553   1.951   6.719   9.189  1.5828  0.7858  0.3484
 4038SOL     OW13554   0.399   3.251   0.812 -0.3213  0.4554 -0.5179
 4038SOL    HW113555   0.489   3.221   0.800  0.2486  2.3665 -1.3829
 4038SOL    HW213556   0.357   3.236   0.728 -0.4754  0.6788 -0.4802
 4039SOL     OW13557   6.473   0.663   0.579  0.2107 -0.2520 -0.1225
 4039SOL    HW113558   6.495   0.577   0.616  0.9289  0.0226  0.1216
 4039SOL    HW213559   6.447   0.645   0.489 -1.3280 -0.9068  0.4338
 4040SOL     OW13560   1.117   7.228   6.576 -0.4314 -0.5482 -0.0556
 4040SOL    HW113561   1.101   7.187   6.662  0.8033  1.3257  1.1241
 4040SOL    HW213562   1.071   7.312   6.581 -1.1996 -0.8458 -1.6560
 4041SOL     OW13563   6.576   0.748  10.406 -0.5228 -0.3004  0.1279
 4041SOL    HW113564   6.485   0.722  10.421 -0.0218 -2.6721 -0.5763
 4041SOL    HW213565   6.583   0.760  10.311 -0.0608 -0.2540  0.1638
 4042SOL     OW13566   4.912   1.234   2.664  0.5806 -0.1546 -0.3373
 4042SOL    HW113567   4.846   1.165   2.662  0.4781 -0.0556 -0.3732
 4042SOL    HW213568   4.944   1.234   2.754 -0.1287  0.4227 -0.0796
 4043SOL     OW13569   3.475   3.085   1.919  0.3755  0.5547  0.3383
 4043SOL    HW113570   3.534   3.038   1.860 -0.8804 -3.1209  1.7618
 4043SOL    HW213571   3.393   3.093   1.871 -0.5976 -2.3012  1.3245
 4044SOL     OW13572   1.472   5.331  10.848  0.3919 -0.7318  0.3531
 4044SOL    HW113573   1.497   5.335  10.941 -1.2970  0.7247  0.8153
 4044SOL    HW213574   1.514   5.252  10.815  1.1598 -1.2125  2.3261
 4045SOL     OW13575   5.599   2.424   9.776  0.4675 -0.2219 -0.1534
 4045SOL    HW113576   5.674   2.475   9.746 -0.2432  0.5990 -0.5800
 4045SOL    HW213577   5.577   2.367   9.702 -0.2268  0.5797 -0.5691
 4046SOL     OW13578   7.016   2.168   1.421  0.1171 -0.3898 -0.3084
 4046SOL    HW113579   7.008   2.244   1.364 -0.8961 -0.9693 -0.9687
 4046SOL    HW213580   6.926   2.137   1.432  0.6680 -3.0477 -2.2495
 4047SOL     OW13581   4.751   1.092  10.929 -0.0106  0.4557  0.0221
 4047SOL    HW113582   4.749   1.186  10.945 -0.6763  0.3257  0.7826
 4047SOL    HW213583   4.736   1.052  11.015 -2.0669 -0.2928 -0.6250
 4048SOL     OW13584   1.547   7.292   6.365 -0.0935  0.0762  0.2085
 4048SOL    HW113585   1.545   7.291   6.269  0.6883 -1.1385  0.1908
 4048SOL    HW213586   1.467   7.248   6.392  0.6049 -1.3311  0.0704
 4049SOL     OW13587   1.827   6.862   0.980 -0.1662  0.1949 -0.0969
 4049SOL    HW113588   1.842   6.776   0.940 -1.4152  0.2306 -0.6977
 4049SOL    HW213589   1.903   6.876   1.036  0.7954 -0.6335 -1.1389
 4050SOL     OW13590   2.147   7.655  12.286 -0.3456  0.2901  0.0063
 4050SOL    HW113591   2.195   7.573  12.293 -1.0618 -0.0232  1.5843
 4050SOL    HW213592   2.147   7.675  12.192  0.1250 -1.3357 -0.3620
 4051SOL     OW13593   5.950   2.151   3.676  0.0298  0.9497 -0.6178
 4051SOL    HW113594   5.966   2.126   3.766  1.7876  0.1133 -1.1176
 4051SOL    HW213595   5.978   2.242   3.671  1.8473  0.4213 -0.7373
 4052SOL     OW13596   1.933   5.973  10.433 -0.3429  0.3533 -0.0618
 4052SOL    HW113597   1.923   5.878  10.440 -0.5339  0.3777 -0.0156
 4052SOL    HW213598   1.874   5.998  10.362  0.8518  0.2366 -1.1335
 4053SOL     OW13599   4.984   0.442   4.635  0.2025 -0.3579  0.1275
 4053SOL    HW113600   4.991   0.407   4.723  0.7845 -0.5687  0.0046
 4053SOL    HW213601   4.986   0.537   4.647  3.3621 -0.3091  0.1863
 4054SOL     OW13602   3.278   7.810   9.309 -0.2057  0.3524 -0.6047
 4054SOL    HW113603   3.364   7.804   9.268  0.2469 -1.5135  0.5203
 4054SOL    HW213604   3.278   7.741   9.376 -1.9860  1.3502  0.5122
 4055SOL     OW13605   7.232   4.823   5.559 -0.2039  0.2148 -0.0410
 4055SOL    HW113606   7.239   4.888   5.628 -0.3128 -0.0203  0.1952
 4055SOL    HW213607   7.319   4.784   5.553  0.2188  1.2446 -1.0542
 4056SOL     OW13608   0.541   5.851   4.969 -0.2511  0.1646 -0.5066
 4056SOL    HW113609   0.605   5.921   4.974 -0.9534  0.7203  1.5542
 4056SOL    HW213610   0.460   5.895   4.943 -0.6842  0.1522  0.7564
 4057SOL     OW13611   4.195   0.103   3.055  0.1891  0.6446  0.2721
 4057SOL    HW113612   4.176   0.117   3.148 -0.7069  3.4434 -0.2265
 4057SOL    HW213613   4.115   0.064   3.020  0.4216 -0.1447  0.6035
 4058SOL     OW13614   3.638   4.239   4.303 -0.3836 -0.1386 -0.0570
 4058SOL    HW113615   3.656   4.317   4.356 -0.7804  0.6625 -1.0574
 4058SOL    HW213616   3.708   4.239   4.236 -0.9295 -0.0977 -0.6359
 4059SOL     OW13617   7.390   3.974   0.961 -0.2761 -0.0129  0.5330
 4059SOL    HW113618   7.389   3.982   0.866 -0.4532  1.8439  0.6473
 4059SOL    HW213619   7.297   3.970   0.985 -0.2332 -0.4137  0.6365
 4060SOL     OW13620   6.608   3.240   8.342  0.6230  0.2239 -0.2471
 4060SOL    HW113621   6.602   3.216   8.250 -1.0366 -0.9734  0.1347
 4060SOL    HW213622   6.576   3.330   8.345 -0.5937 -0.1770 -0.6881
 4061SOL     OW13623   6.934   3.467  10.577 -0.0118  0.3656  0.2571
 4061SOL    HW113624   6.999   3.424  10.632  1.3751  1.0209 -0.8082
 4061SOL    HW213625   6.858   3.479  10.634  0.8531 -0.2682  1.5845
 4062SOL     OW13626   7.907   0.405   2.982  0.0413 -0.2086  0.1967
 4062SOL    HW113627   7.879   0.322   2.944 -0.0775  0.8281 -2.1601
 4062SOL    HW213628   7.825   0.448   3.008  0.1482 -1.1368  2.3047
 4063SOL     OW13629   3.882   1.777   5.402 -0.3387  0.0494 -0.3052
 4063SOL    HW113630   3.820   1.743   5.466 -0.7579 -0.5970 -1.0303
 4063SOL    HW213631   3.863   1.871   5.397  0.0193  0.1934  0.8445
 4064SOL     OW13632   2.676   3.323   1.090  0.0544  0.0172 -0.1660
 4064SOL    HW113633   2.770   3.333   1.071 -0.0136 -0.8660 -1.0756
 4064SOL    HW213634   2.671   3.244   1.144  0.0826  1.6505  2.3965
 4065SOL     OW13635   7.535   6.622  11.275 -0.0343  0.0123  0.1354
 4065SOL    HW113636   7.545   6.643  11.182 -0.1015 -0.6937 -0.0424
 4065SOL    HW213637   7.441   6.605  11.285  0.1264 -1.0065  0.0716
 4066SOL     OW13638   6.018   4.186   6.179  0.0399  0.0684 -0.2354
 4066SOL    HW113639   5.977   4.101   6.163 -2.1031  0.9277  0.4279
 4066SOL    HW213640   6.035   4.187   6.273  2.8791 -0.7628 -0.6422
 4067SOL     OW13641   1.268   2.768   6.878  0.1880 -0.5260  0.5656
 4067SOL    HW113642   1.292   2.698   6.939  1.3824 -0.3967  0.2675
 4067SOL    HW213643   1.270   2.848   6.931 -1.1745 -0.6885  0.9053
 4068SOL     OW13644   5.480   7.858   0.148 -0.3669 -0.7381  0.7322
 4068SOL    HW113645   5.450   7.768   0.132  0.0122 -0.5209 -1.4557
 4068SOL    HW213646   5.400   7.911   0.142 -0.4276 -0.8089  0.9169
 4069SOL     OW13647   1.390   3.922   4.347 -0.4384 -0.4248 -0.2136
 4069SOL    HW113648   1.383   3.971   4.265 -0.3075  2.4197  1.3338
 4069SOL    HW213649   1.301   3.889   4.362 -1.0543  1.0949 -0.3436
 4070SOL     OW13650   5.409   3.709   9.854 -0.6503  0.3148  0.1225
 4070SOL    HW113651   5.340   3.769   9.881 -1.0287 -0.9030  2.0756
 4070SOL    HW213652   5.430   3.659   9.933  1.1482 -0.6480 -0.8941
 4071SOL     OW13653   7.141   1.112  10.581 -0.0982 -0.0584 -0.2346
 4071SOL    HW113654   7.173   1.103  10.491  0.5787 -2.3133  0.1534
 4071SOL    HW213655   7.050   1.140  10.571  0.2256  0.5828 -1.5909
 4072SOL     OW13656   3.204   4.845   2.655 -0.1517 -0.1118  0.2458
 4072SOL    HW113657   3.199   4.876   2.745  1.3170  0.9750 -0.0171
 4072SOL    HW213658   3.125   4.791   2.644 -1.6451  1.6922  1.4304
 4073SOL     OW13659   4.787   4.366   5.435 -0.0779 -0.2059 -0.5262
 4073SOL    HW113660   4.741   4.450   5.435  1.3441  0.6067  0.3318
 4073SOL    HW213661   4.823   4.358   5.347 -2.2868 -1.1619 -1.4338
 4074SOL     OW13662   5.156   1.560   3.196  0.0319 -0.3708  0.4376
 4074SOL    HW113663   5.145   1.492   3.263 -1.1913 -0.5596  0.0766
 4074SOL    HW213664   5.174   1.511   3.115 -0.4779 -0.2510  0.2497
 4075SOL     OW13665   7.700   6.592   0.280 -0.2234 -0.3192  0.2855
 4075SOL    HW113666   7.614   6.635   0.281  0.0863  0.3235  0.2293
 4075SOL    HW213667   7.743   6.624   0.359  0.9676  1.5188 -1.0048
 4076SOL     OW13668   0.681   4.685   8.828 -0.6609  0.4214  0.0820
 4076SOL    HW113669   0.635   4.769   8.838  0.9327  1.3412  0.1176
 4076SOL    HW213670   0.732   4.676   8.909 -0.9860 -0.7096  0.1748
 4077SOL     OW13671   1.554   2.611   5.634  0.2052  0.1062  0.3758
 4077SOL    HW113672   1.538   2.615   5.728  2.7425 -1.0013  0.9544
 4077SOL    HW213673   1.579   2.519   5.618 -1.5441 -0.0946 -1.6686
 4078SOL     OW13674   0.062   7.447   2.305  0.0336  0.4449 -0.7486
 4078SOL    HW113675  -0.020   7.437   2.352  0.4254  0.2358 -0.0871
 4078SOL    HW213676   0.069   7.367   2.252 -1.5005  1.6738 -2.9739
 4079SOL     OW13677   4.921   2.401   0.485  0.5965 -0.4651 -0.3280
 4079SOL    HW113678   4.923   2.305   0.487  1.1550 -0.4449  0.6981
 4079SOL    HW213679   4.888   2.427   0.571  2.3178  0.2760  0.1568
 4080SOL     OW13680   2.925   0.503   0.490  0.1800 -0.0763  0.3221
 4080SOL    HW113681   2.908   0.586   0.533  0.1709 -0.0192  0.2084
 4080SOL    HW213682   3.001   0.467   0.536  0.5883  0.3016 -0.0550
 4081SOL     OW13683   6.382   3.611   0.633  0.6267  0.0739 -0.0904
 4081SOL    HW113684   6.366   3.529   0.680  0.1802 -0.3073 -0.9009
 4081SOL    HW213685   6.421   3.585   0.550  0.5404  0.6831 -0.3322
 4082SOL     OW13686   2.279   2.193   6.361  0.0456 -0.0055 -0.2615
 4082SOL    HW113687   2.273   2.240   6.278 -2.0083  0.7048  0.2419
 4082SOL    HW213688   2.210   2.126   6.356 -0.4197  0.3496  1.0386
 4083SOL     OW13689   5.692   6.897   1.279 -0.0579  0.0857 -0.5253
 4083SOL    HW113690   5.642   6.969   1.241 -0.3777  0.8447  1.2305
 4083SOL    HW213691   5.628   6.847   1.329  0.2110 -1.3073 -1.5107
 4084SOL     OW13692   6.310   3.505   5.779  0.2498  0.0989 -0.4606
 4084SOL    HW113693   6.278   3.426   5.736  0.3211  0.0734 -0.4662
 4084SOL    HW213694   6.299   3.488   5.872  0.9832 -0.2209 -0.4283
 4085SOL     OW13695   1.931   4.812  12.147  0.8022  0.5453  0.5891
 4085SOL    HW113696   2.002   4.828  12.209  1.6105  0.8521 -0.3813
 4085SOL    HW213697   1.869   4.756  12.194  0.0873  2.8489  2.5783
 4086SOL     OW13698   7.619   5.846   2.120  0.1901 -0.4807  0.0186
 4086SOL    HW113699   7.700   5.864   2.169 -0.9771 -0.4578  2.0907
 4086SOL    HW213700   7.569   5.928   2.126  0.0176 -0.4737 -1.2848
 4087SOL     OW13701   0.539   6.639   1.435  0.3711  0.5003  0.9180
 4087SOL    HW113702   0.598   6.689   1.379 -1.5253  1.6050 -0.2341
 4087SOL    HW213703   0.593   6.608   1.507  2.7819 -0.3888 -1.1417
 4088SOL     OW13704   2.324   2.421   1.956  0.2752  0.0780  0.8116
 4088SOL    HW113705   2.298   2.331   1.974 -1.4696  0.5135  0.6426
 4088SOL    HW213706   2.412   2.429   1.992  0.4141 -1.6585  0.9011
 4089SOL     OW13707   1.654   3.958   9.841  0.0432  0.3754  0.1705
 4089SOL    HW113708   1.711   3.882   9.854 -0.5048 -0.1291 -0.3359
 4089SOL    HW213709   1.713   4.029   9.817  0.7059  0.4365  1.8555
 4090SOL     OW13710   7.142   1.783   6.929 -0.0005 -0.5355  0.5375
 4090SOL    HW113711   7.216   1.747   6.881  0.1065 -1.7848  1.6033
 4090SOL    HW213712   7.141   1.876   6.905  0.9727 -0.8113 -0.6573
 4091SOL     OW13713   1.307   4.163   1.360 -0.2363 -0.1600  0.1744
 4091SOL    HW113714   1.259   4.198   1.285 -1.3509 -1.0552  0.4451
 4091SOL    HW213715   1.281   4.219   1.433  0.9166  0.7668 -0.0832
 4092SOL     OW13716   2.594   0.687  10.940 -0.4831  0.2720  0.4655
 4092SOL    HW113717   2.590   0.699  11.034 -0.7450  0.7037  0.4054
 4092SOL    HW213718   2.568   0.772  10.904  0.1300  0.2732  0.0083
 4093SOL     OW13719   3.101   4.752  10.093  0.4375  0.0790 -0.2899
 4093SOL    HW113720   3.114   4.760   9.998  0.2470  2.0088 -0.1952
 4093SOL    HW213721   3.187   4.769  10.131  1.0605 -2.8616 -0.1007
 4094SOL     OW13722   1.280   2.917  10.921 -0.3187  0.3574 -0.2078
 4094SOL    HW113723   1.364   2.905  10.966 -0.3922 -0.2348 -0.2279
 4094SOL    HW213724   1.230   2.974  10.979 -0.5637 -0.7194  0.6676
 4095SOL     OW13725   5.542   6.282   9.502  0.2813 -0.2742 -0.1115
 4095SOL    HW113726   5.565   6.321   9.586 -1.2920 -0.4086  0.4233
 4095SOL    HW213727   5.522   6.191   9.523  1.5753 -0.7617 -0.9410
 4096SOL     OW13728   3.587   5.073   9.921  0.0197 -0.4163 -0.1858
 4096SOL    HW113729   3.601   4.978   9.927 -0.3826 -0.4377  0.6754
 4096SOL    HW213730   3.638   5.109   9.994 -0.0130  0.0086 -0.3694
 4097SOL     OW13731   1.699   2.981   4.388  0.3406  0.4960  0.1985
 4097SOL    HW113732   1.754   3.055   4.365 -0.0672  0.6627 -0.2600
 4097SOL    HW213733   1.755   2.904   4.372  0.6429  0.6871  0.3316
 4098SOL     OW13734   7.260   6.534   8.921  0.0069 -0.0320 -1.0193
 4098SOL    HW113735   7.284   6.550   8.830 -1.3550 -1.8566 -1.7522
 4098SOL    HW213736   7.335   6.567   8.971  0.3157  2.0260 -2.6937
 4099SOL     OW13737   6.404   2.846   1.125 -0.0313 -0.8364 -0.7847
 4099SOL    HW113738   6.357   2.834   1.043  0.5437 -1.6848 -1.0083
 4099SOL    HW213739   6.354   2.796   1.190  0.4369 -1.5859 -0.9846
 4100SOL     OW13740   2.850   0.207   5.302  0.6867  0.2309  0.3722
 4100SOL    HW113741   2.756   0.191   5.297  0.7890 -0.3275  0.0791
 4100SOL    HW213742   2.869   0.267   5.230  0.9407 -1.6771 -1.2338
 4101SOL     OW13743   6.905   3.862  10.954  0.0658  0.2652 -0.2331
 4101SOL    HW113744   6.934   3.949  10.929 -1.0178  1.1595  1.4370
 4101SOL    HW213745   6.983   3.807  10.946  0.7393  1.3451 -1.3897
 4102SOL     OW13746   5.105   5.202  10.894 -0.0480 -0.0867 -0.7148
 4102SOL    HW113747   5.038   5.267  10.916  1.3134  1.3199 -0.5553
 4102SOL    HW213748   5.063   5.118  10.911 -1.5301  0.7718  0.0718
 4103SOL     OW13749   0.135   4.565   6.105  0.0160  0.0980 -0.2973
 4103SOL    HW113750   0.190   4.609   6.039 -2.3479  0.9543 -1.8435
 4103SOL    HW213751   0.131   4.474   6.076 -0.4019  0.3100 -0.9253
 4104SOL     OW13752   1.566   6.263   8.082  0.4115 -0.0589  0.3085
 4104SOL    HW113753   1.650   6.300   8.107  0.6545 -0.0876 -0.4502
 4104SOL    HW213754   1.567   6.174   8.118  1.7613 -0.9674 -1.7998
 4105SOL     OW13755   6.873   0.552   2.233  0.2765 -0.3561  0.0388
 4105SOL    HW113756   6.875   0.590   2.320  1.0891 -0.5522  0.1169
 4105SOL    HW213757   6.814   0.608   2.183 -1.5749 -1.2464  1.1514
 4106SOL     OW13758   2.867   0.719   5.249  0.3222 -0.1728  0.7117
 4106SOL    HW113759   2.889   0.689   5.337  0.3127 -1.9107  0.1491
 4106SOL    HW213760   2.800   0.658   5.218  1.4104 -0.5450 -1.0503
 4107SOL     OW13761   5.383   1.361  10.775  0.6293 -0.2290 -0.5391
 4107SOL    HW113762   5.413   1.435  10.723 -0.9959 -0.5835 -2.1140
 4107SOL    HW213763   5.438   1.288  10.745 -1.3065 -0.7922 -3.1135
 4108SOL     OW13764   6.009   3.220   8.365 -0.4866  0.3048 -0.2256
 4108SOL    HW113765   6.104   3.224   8.373 -0.4964  1.5404 -0.4365
 4108SOL    HW213766   5.993   3.159   8.294  0.2253  1.1586 -1.1493
 4109SOL     OW13767   3.604   0.396   1.129 -0.2287  0.3865 -0.1523
 4109SOL    HW113768   3.657   0.327   1.088  0.0196 -0.7902  1.9836
 4109SOL    HW213769   3.658   0.475   1.122  0.5414 -0.1592 -0.5635
 4110SOL     OW13770   2.132   7.380   9.057  0.6549  0.2156  0.5260
 4110SOL    HW113771   2.207   7.369   9.115  0.2327  1.0764  1.2494
 4110SOL    HW213772   2.100   7.469   9.074 -0.8445 -0.3045  0.6420
 4111SOL     OW13773   0.317   7.355   3.189  0.1593 -0.2116 -0.3777
 4111SOL    HW113774   0.306   7.389   3.278 -0.5789 -0.8607 -0.2084
 4111SOL    HW213775   0.399   7.394   3.159  1.2083 -1.1127  1.1263
 4112SOL     OW13776   3.373   4.640   1.574  0.4394  0.0046 -0.1245
 4112SOL    HW113777   3.387   4.622   1.667  0.3353 -0.0497 -0.1181
 4112SOL    HW213778   3.452   4.608   1.530  1.4478  1.9733  0.1589
 4113SOL     OW13779   3.757   4.025   2.294 -0.6780 -0.4458 -0.5777
 4113SOL    HW113780   3.819   4.074   2.347  2.1096 -1.8988 -2.2390
 4113SOL    HW213781   3.730   4.085   2.225  0.3578 -0.3308 -0.8890
 4114SOL     OW13782   4.309   6.534  10.039  0.6813 -0.4272  0.4596
 4114SOL    HW113783   4.261   6.592  10.099 -0.7079 -1.2326  0.1959
 4114SOL    HW213784   4.392   6.517  10.083  0.4649  0.5192  1.2609
 4115SOL     OW13785   0.308   6.442   9.170 -0.2050 -0.5170 -0.3288
 4115SOL    HW113786   0.360   6.421   9.093 -0.3573 -0.5225 -0.4298
 4115SOL    HW213787   0.365   6.499   9.222 -0.7753  1.0375 -1.3258
 4116SOL     OW13788   7.917   5.721   4.666  0.3042 -0.4494 -0.3433
 4116SOL    HW113789   7.870   5.781   4.723  2.0291 -0.1232  0.8183
 4116SOL    HW213790   7.927   5.641   4.718 -0.4478 -1.1292 -1.2190
 4117SOL     OW13791   5.558   1.605   6.849  0.1398 -0.1367  0.0323
 4117SOL    HW113792   5.546   1.520   6.890  0.1404 -0.3190 -0.3456
 4117SOL    HW213793   5.472   1.626   6.812  0.1874 -0.0596 -0.0363
 4118SOL     OW13794   7.123   0.344   8.506  0.4498 -0.3198 -0.3911
 4118SOL    HW113795   7.091   0.430   8.476  1.0731  0.1730  0.3184
 4118SOL    HW213796   7.200   0.327   8.452  1.4207  0.4489  0.6969
 4119SOL     OW13797   4.254   7.107   7.527 -0.0035  0.0605 -0.3603
 4119SOL    HW113798   4.300   7.145   7.602  1.0859  0.0849 -1.0129
 4119SOL    HW213799   4.176   7.067   7.564  0.1339  0.7179  0.6819
 4120SOL     OW13800   2.757   4.810   8.913  0.2156  0.0186  0.0838
 4120SOL    HW113801   2.830   4.865   8.886  1.3472 -0.9142  1.1792
 4120SOL    HW213802   2.797   4.737   8.961 -1.4543 -0.2484  1.1591
 4121SOL     OW13803   5.253   5.416   4.499 -0.0797 -0.4013 -0.1077
 4121SOL    HW113804   5.211   5.497   4.528 -0.2475  0.0022 -1.3880
 4121SOL    HW213805   5.279   5.371   4.579 -2.0903 -0.2028  0.7113
 4122SOL     OW13806   1.411   3.429   4.919 -0.5325 -0.1719 -0.2717
 4122SOL    HW113807   1.344   3.483   4.961  0.6879 -0.1563  1.8267
 4122SOL    HW213808   1.492   3.479   4.930  0.1598 -1.1270 -0.8723
 4123SOL     OW13809   6.962   2.400  10.684  0.5528 -0.0484  0.1796
 4123SOL    HW113810   7.020   2.467  10.649  1.6954 -0.2232  1.6352
 4123SOL    HW213811   6.913   2.367  10.608  0.7616  1.6362 -0.7312
 4124SOL     OW13812   3.872   6.949  11.058  0.2789  1.0194 -0.6798
 4124SOL    HW113813   3.948   6.937  11.002  0.8135  0.8447  0.0591
 4124SOL    HW213814   3.909   6.976  11.143 -0.1586 -2.3794  0.7626
 4125SOL     OW13815   6.279   2.500   4.730 -0.1560  0.2400 -0.0795
 4125SOL    HW113816   6.370   2.482   4.704 -0.3909 -0.3262 -0.5325
 4125SOL    HW213817   6.287   2.569   4.796  0.7499 -1.1259  1.3338
 4126SOL     OW13818   2.971   0.892   9.234  0.0186 -0.1024 -0.2063
 4126SOL    HW113819   2.991   0.905   9.326  1.2498  1.5232 -0.6512
 4126SOL    HW213820   2.877   0.875   9.232  0.2354 -1.7786  1.4549
 4127SOL     OW13821   1.609   0.297   9.703 -0.6533 -0.2298  0.1976
 4127SOL    HW113822   1.622   0.330   9.792  1.1883  0.4441 -0.2870
 4127SOL    HW213823   1.585   0.375   9.653 -0.0639 -0.3058 -0.2076
 4128SOL     OW13824   4.619   5.833  11.358 -0.4824  0.2050 -0.0716
 4128SOL    HW113825   4.627   5.920  11.319  0.1849  1.2147  2.1528
 4128SOL    HW213826   4.692   5.783  11.320  1.0657  1.6055  0.9380
 4129SOL     OW13827   3.991   5.742   1.504  0.4072 -0.2880 -0.0908
 4129SOL    HW113828   4.023   5.792   1.428 -2.2216  0.0826 -1.0747
 4129SOL    HW213829   3.946   5.806   1.558  0.2091 -0.9681  0.5718
 4130SOL     OW13830   3.590   0.074   7.727  0.1536  0.3676 -0.2274
 4130SOL    HW113831   3.522   0.105   7.786 -1.9083 -0.2811 -2.1026
 4130SOL    HW213832   3.672   0.087   7.775 -1.3785 -0.5730  2.9421
 4131SOL     OW13833   0.071   1.404   4.554 -0.3198 -0.3870  0.0534
 4131SOL    HW113834  -0.015   1.366   4.537 -1.0386  0.3216  1.8092
 4131SOL    HW213835   0.069   1.489   4.510 -0.1996 -0.7156 -0.5915
 4132SOL     OW13836   5.375   4.102  11.107 -0.2782 -0.0152 -0.2858
 4132SOL    HW113837   5.354   4.012  11.132 -0.8068 -0.4166 -2.0063
 4132SOL    HW213838   5.292   4.149  11.112 -0.3446 -0.0454 -0.9899
 4133SOL     OW13839   6.217   7.917   3.741  1.1159 -0.2257  0.2760
 4133SOL    HW113840   6.122   7.912   3.754  0.9782 -1.5413 -1.0281
 4133SOL    HW213841   6.250   7.951   3.824 -0.5351  0.7676  0.5868
 4134SOL     OW13842   7.745   3.479   4.076  0.1758  0.2613  0.4493
 4134SOL    HW113843   7.783   3.441   3.997  0.2465 -0.5677  0.8631
 4134SOL    HW213844   7.751   3.409   4.141 -1.4381  0.3384  0.7186
 4135SOL     OW13845   5.844   2.401   9.376  0.0185  0.4795 -0.1571
 4135SOL    HW113846   5.765   2.348   9.383 -0.2516  0.8441 -0.4039
 4135SOL    HW213847   5.813   2.486   9.344  0.6348  0.3310 -1.1816
 4136SOL     OW13848   7.153   3.487  10.005  0.1369  0.2477 -0.1064
 4136SOL    HW113849   7.188   3.432  10.075  0.1947  1.8741  1.2059
 4136SOL    HW213850   7.174   3.439   9.924  1.9832 -0.6561  0.8401
 4137SOL     OW13851   1.551   6.740   9.159 -0.1206 -0.2514  0.4697
 4137SOL    HW113852   1.598   6.684   9.096  0.6037  0.6946  0.1341
 4137SOL    HW213853   1.594   6.722   9.243  0.2865 -0.0093  0.3164
 4138SOL     OW13854   7.333   5.967  10.997  0.0813 -0.2508 -0.4340
 4138SOL    HW113855   7.348   6.012  10.913  0.7776  1.5579  0.5947
 4138SOL    HW213856   7.388   5.889  10.992 -0.2058 -0.4035 -1.8057
 4139SOL     OW13857   1.813   4.419   2.299  0.5088 -0.0071  0.0443
 4139SOL    HW113858   1.899   4.407   2.259  0.2234  1.4150 -1.0654
 4139SOL    HW213859   1.831   4.463   2.382  0.7518  2.9821 -1.4635
 4140SOL     OW13860   5.998   4.278   4.556 -0.1227  0.1131  0.4768
 4140SOL    HW113861   6.090   4.303   4.542 -0.9007  3.3987  0.2944
 4140SOL    HW213862   5.983   4.297   4.649 -0.4765 -1.1588  0.7021
 4141SOL     OW13863   2.490   1.929   9.708  0.3799 -1.0622 -0.0789
 4141SOL    HW113864   2.582   1.903   9.713  0.8329  0.5880  1.9007
 4141SOL    HW213865   2.481   1.971   9.623  1.2753 -1.8627 -0.5807
 4142SOL     OW13866   3.613   6.840  10.950 -0.3002  0.1045 -0.4796
 4142SOL    HW113867   3.671   6.836  10.875  0.1629  0.1587 -0.1305
 4142SOL    HW213868   3.672   6.851  11.025 -0.6251 -1.7950  0.0913
 4143SOL     OW13869   5.591   5.231   8.504  0.2796 -0.3885  0.2035
 4143SOL    HW113870   5.542   5.150   8.522  1.0743 -1.0090 -0.3401
 4143SOL    HW213871   5.682   5.209   8.526  0.5250  0.3187 -0.0880
 4144SOL     OW13872   6.178   1.639   6.607  0.1220 -0.1397  0.0344
 4144SOL    HW113873   6.181   1.584   6.528  1.4465 -0.5881  0.3754
 4144SOL    HW213874   6.128   1.716   6.581  1.1867  0.0775 -1.4801
 4145SOL     OW13875   4.018   5.702   4.295  0.3481  0.2127 -0.3936
 4145SOL    HW113876   4.062   5.663   4.370 -2.2022 -1.2881  0.4602
 4145SOL    HW213877   4.052   5.654   4.219  0.8113 -0.3135  0.1363
 4146SOL     OW13878   7.023   1.450   3.057 -0.1027 -0.4698 -0.4343
 4146SOL    HW113879   7.005   1.450   2.963 -0.6735  2.0642 -0.3954
 4146SOL    HW213880   6.936   1.455   3.097  0.1393  2.9655  0.0022
 4147SOL     OW13881   5.261   0.662   3.242  0.2212 -0.0089  0.1242
 4147SOL    HW113882   5.353   0.683   3.228  0.1270 -0.6092 -1.7012
 4147SOL    HW213883   5.263   0.580   3.291  0.6750 -0.1541 -0.1237
 4148SOL     OW13884   7.607   5.943   9.957  0.1081 -0.2512 -0.6841
 4148SOL    HW113885   7.606   5.942  10.053 -3.0985 -0.2159 -0.5954
 4148SOL    HW213886   7.573   5.858   9.932 -0.3628  0.2296 -1.7404
 4149SOL     OW13887   0.032   4.354  11.033  0.0032  0.1987 -0.0572
 4149SOL    HW113888   0.025   4.285  11.100 -1.4046  0.6180  0.2444
 4149SOL    HW213889   0.095   4.416  11.071  0.2278 -0.2184  0.2773
 4150SOL     OW13890   7.734   5.000  11.872  0.1732  0.0908 -0.1227
 4150SOL    HW113891   7.801   4.977  11.808 -2.1712  0.4829 -2.9652
 4150SOL    HW213892   7.697   4.916  11.898 -0.9347 -0.0265 -1.8519
 4151SOL     OW13893   3.599   1.596   6.443  0.4084 -0.7207 -0.1184
 4151SOL    HW113894   3.527   1.560   6.496  1.5407 -1.7181  0.8222
 4151SOL    HW213895   3.556   1.636   6.368 -1.1901 -0.3884  0.9223
 4152SOL     OW13896   0.395   7.266   5.154  0.2210  0.2231  0.3237
 4152SOL    HW113897   0.479   7.288   5.196  0.5929  0.5834 -0.5749
 4152SOL    HW213898   0.338   7.339   5.176  0.1589  0.0120  0.8797
 4153SOL     OW13899   3.608   4.121   1.331  0.1531 -0.3862 -0.0299
 4153SOL    HW113900   3.656   4.071   1.398  1.2000 -1.4877 -1.5371
 4153SOL    HW213901   3.676   4.166   1.281 -0.6870  1.2886  0.2799
 4154SOL     OW13902   2.016   0.423   6.998 -0.1441  0.2343 -0.1046
 4154SOL    HW113903   1.941   0.385   6.951 -0.7598 -0.2042  1.2016
 4154SOL    HW213904   2.007   0.391   7.087  0.6349  1.6034  0.4875
 4155SOL     OW13905   0.385   6.402  11.117 -0.0457 -0.6584 -0.4153
 4155SOL    HW113906   0.323   6.427  11.049 -0.5971  0.8999  0.5932
 4155SOL    HW213907   0.419   6.485  11.149  1.7974 -1.4459 -0.2225
 4156SOL     OW13908   2.196   2.566  11.921 -0.6717 -0.4248  0.0121
 4156SOL    HW113909   2.272   2.621  11.939 -0.7383  0.2842 -1.7572
 4156SOL    HW213910   2.140   2.577  11.998 -0.8417  2.2663 -0.4108
 4157SOL     OW13911   1.646   7.685  11.056  0.0754 -0.3355  0.1475
 4157SOL    HW113912   1.691   7.769  11.044 -1.0100  0.2296 -0.1174
 4157SOL    HW213913   1.668   7.658  11.145 -0.0186  0.5193  0.4387
 4158SOL     OW13914   2.517   2.623   7.968  0.3429  0.3048 -0.2141
 4158SOL    HW113915   2.439   2.649   8.017 -0.3226 -0.1244 -1.0261
 4158SOL    HW213916   2.484   2.595   7.883  1.4266  0.5123 -0.7222
 4159SOL     OW13917   1.736   5.314   4.283 -0.0829 -0.2313  0.0846
 4159SOL    HW113918   1.729   5.398   4.239 -0.5400  0.7823  1.9851
 4159SOL    HW213919   1.645   5.285   4.296  0.0744 -1.2701 -0.9646
 4160SOL     OW13920   1.210   2.658   5.375  0.3428  0.5171  0.4037
 4160SOL    HW113921   1.265   2.736   5.379 -1.4236  1.9159 -0.8962
 4160SOL    HW213922   1.141   2.674   5.440 -0.1071  0.0994  0.0393
 4161SOL     OW13923   4.043   0.610   0.094  0.6638 -0.0638  0.3022
 4161SOL    HW113924   3.992   0.667   0.037 -0.0972 -0.4320  0.6095
 4161SOL    HW213925   4.091   0.669   0.151  0.1652  0.2755  0.3712
 4162SOL     OW13926   1.661   5.138   6.740 -0.2989  0.7506 -0.4788
 4162SOL    HW113927   1.747   5.097   6.734 -0.8962 -0.5027 -0.8967
 4162SOL    HW213928   1.674   5.227   6.709  0.2898 -0.2817 -3.5077
 4163SOL     OW13929   3.047   7.447   8.873  0.6381  0.2544  0.1613
 4163SOL    HW113930   3.103   7.506   8.823 -0.0105  1.5221  0.9113
 4163SOL    HW213931   3.102   7.370   8.889  1.1895  0.2381 -1.6073
 4164SOL     OW13932   5.925   1.585   7.643 -0.3221  1.0130 -0.1341
 4164SOL    HW113933   5.831   1.601   7.653 -0.7731 -0.3654 -1.7823
 4164SOL    HW213934   5.946   1.623   7.557 -0.1136 -1.4832 -1.2651
 4165SOL     OW13935   5.686   2.989  10.451 -0.4547  0.1524  0.1386
 4165SOL    HW113936   5.691   3.078  10.415 -0.5258  0.4080  0.7508
 4165SOL    HW213937   5.705   2.932  10.376  0.4501  0.7103 -0.0718
 4166SOL     OW13938   1.554   5.031   6.951 -0.5218  0.3476 -0.2930
 4166SOL    HW113939   1.547   5.061   6.861 -3.2476  1.1660  0.0926
 4166SOL    HW213940   1.480   4.971   6.962  1.5527 -2.2581  0.5785
 4167SOL     OW13941   7.619   2.498  10.495  0.0575  0.4689  0.2538
 4167SOL    HW113942   7.549   2.545  10.450 -1.2154 -2.5227 -1.2218
 4167SOL    HW213943   7.690   2.493  10.430  0.0459  0.1133  0.2638
 4168SOL     OW13944   1.268   5.205   8.166  0.2207  0.0393  0.1092
 4168SOL    HW113945   1.196   5.194   8.105  1.6136 -0.7726 -1.4717
 4168SOL    HW213946   1.346   5.215   8.111  1.2060  2.0589  1.7138
 4169SOL     OW13947   6.587   3.043  12.337  0.0191  0.7074 -0.1041
 4169SOL    HW113948   6.581   3.035  12.432 -0.3392  0.1959 -0.1690
 4169SOL    HW213949   6.565   3.135  12.320 -1.8221  0.3555  0.1601
 4170SOL     OW13950   6.172   4.702   3.293  0.0821 -0.8030  0.0410
 4170SOL    HW113951   6.222   4.709   3.212 -0.1165 -0.4640 -0.0524
 4170SOL    HW213952   6.082   4.723   3.269  0.2374  0.5786  0.5806
 4171SOL     OW13953   0.800   5.281   9.065 -0.2842 -0.9574 -0.2617
 4171SOL    HW113954   0.712   5.245   9.076 -0.7238 -0.3975 -1.6926
 4171SOL    HW213955   0.810   5.291   8.970  0.5306  0.9062 -0.0249
 4172SOL     OW13956   2.420   1.622  10.653 -0.2819  0.2097  0.0852
 4172SOL    HW113957   2.415   1.681  10.579  0.9510  1.5787  1.0475
 4172SOL    HW213958   2.380   1.671  10.726 -0.0529 -0.4863  0.6918
 4173SOL     OW13959   1.478   3.811   0.778 -0.3046  0.7056  0.6047
 4173SOL    HW113960   1.449   3.902   0.769 -1.6795  0.2799  0.4478
 4173SOL    HW213961   1.482   3.779   0.689 -0.7527  0.3449  0.7121
 4174SOL     OW13962   0.360   1.275  10.561  0.0671 -0.1912  0.2188
 4174SOL    HW113963   0.385   1.247  10.650 -0.7131 -0.8401  0.2524
 4174SOL    HW213964   0.413   1.219  10.503  0.6149  0.2684  0.2692
 4175SOL     OW13965   3.363   0.029   4.528  0.9017  0.5976  0.3776
 4175SOL    HW113966   3.388   0.103   4.474  1.3027  0.0799 -0.1616
 4175SOL    HW213967   3.408  -0.046   4.489  0.3533  0.0358  0.7948
 4176SOL     OW13968   7.138   7.246   7.271  0.2491  0.5859  0.6230
 4176SOL    HW113969   7.188   7.299   7.334 -1.5815  0.9977  1.8338
 4176SOL    HW213970   7.107   7.172   7.323  1.0887 -0.6274 -0.5612
 4177SOL     OW13971   1.957   3.621   0.575 -0.4785 -0.2224 -0.2750
 4177SOL    HW113972   1.894   3.645   0.642  0.1086  0.6952 -0.0284
 4177SOL    HW213973   1.915   3.551   0.525 -0.7818 -1.1892  1.2745
 4178SOL     OW13974   4.591   5.433   4.711 -0.3966  0.5308 -0.2961
 4178SOL    HW113975   4.597   5.456   4.803 -0.7240 -0.4979 -0.0046
 4178SOL    HW213976   4.660   5.368   4.698 -1.4296 -0.5859 -0.3562
 4179SOL     OW13977   4.194   4.980  10.299  0.2765 -0.0575  0.3431
 4179SOL    HW113978   4.182   4.949  10.389 -0.0734  0.7821  0.5958
 4179SOL    HW213979   4.198   4.900  10.246 -1.4313 -0.5434  0.8692
 4180SOL     OW13980   7.094   6.182  10.283 -0.4457 -0.1603  0.0983
 4180SOL    HW113981   7.115   6.117  10.350  2.1422  1.0854  0.6121
 4180SOL    HW213982   7.040   6.135  10.220 -1.0567 -1.9916  1.8883
 4181SOL     OW13983   2.634   0.793   7.910  0.4941 -0.1515  0.0233
 4181SOL    HW113984   2.569   0.835   7.853  0.2708  1.3243  1.3202
 4181SOL    HW213985   2.595   0.708   7.931 -0.8282  0.5155  0.3916
 4182SOL     OW13986   2.256   7.902   1.339  0.3924  0.0857 -0.1188
 4182SOL    HW113987   2.348   7.925   1.357  0.4053 -0.3533  0.4240
 4182SOL    HW213988   2.220   7.880   1.425  0.1694 -1.1332 -0.5083
 4183SOL     OW13989   7.643   0.379   0.540 -0.2168  0.0557 -0.2029
 4183SOL    HW113990   7.588   0.424   0.603  0.5139  0.7720 -0.0630
 4183SOL    HW213991   7.665   0.296   0.582 -1.6343 -0.4849 -0.4934
 4184SOL     OW13992   1.733   4.136   2.232  0.0261  0.0758  0.0142
 4184SOL    HW113993   1.715   4.229   2.242 -1.1567 -0.2303  0.8156
 4184SOL    HW213994   1.681   4.109   2.157  1.7924  0.4074 -1.4199
 4185SOL     OW13995   4.716   6.872   8.930 -0.6225  0.2960  0.5913
 4185SOL    HW113996   4.795   6.834   8.969 -1.9076 -0.1439  2.9706
 4185SOL    HW213997   4.647   6.854   8.994 -2.6288  0.8520 -1.3092
 4186SOL     OW13998   2.080   7.164   7.735  0.2330 -0.1885  0.0486
 4186SOL    HW113999   1.989   7.168   7.763 -0.3146 -1.1731 -1.4348
 4186SOL    HW214000   2.118   7.092   7.786 -0.5410 -1.4642 -1.0924
 4187SOL     OW14001   5.889   5.261   3.336 -0.0469 -0.2617  0.4870
 4187SOL    HW114002   5.930   5.325   3.277  1.0186 -0.4604  0.9902
 4187SOL    HW214003   5.866   5.188   3.279  0.8963 -0.4180  0.2836
 4188SOL     OW14004   3.340   6.004   6.578 -0.8294 -0.2050  0.2139
 4188SOL    HW114005   3.367   6.003   6.670 -1.3662 -0.2870  0.3738
 4188SOL    HW214006   3.407   5.953   6.533  1.9892  3.3748 -0.1795
 4189SOL     OW14007   0.498   2.817   6.466  0.0781 -0.2441 -0.1925
 4189SOL    HW114008   0.492   2.731   6.425  3.4752 -0.0797 -1.3245
 4189SOL    HW214009   0.509   2.878   6.393 -0.6843  0.9912  0.6796
 4190SOL     OW14010   4.827   7.741  11.073  0.3035 -0.1648  0.0893
 4190SOL    HW114011   4.890   7.671  11.092  1.0283 -0.2665 -2.3581
 4190SOL    HW214012   4.770   7.703  11.006 -0.4416  0.9826  0.0598
 4191SOL     OW14013   3.717   2.948   4.790  0.2066 -0.4302  0.0631
 4191SOL    HW114014   3.661   2.900   4.729  1.9386 -2.6675  0.1240
 4191SOL    HW214015   3.660   2.968   4.864 -0.8335 -1.5408 -0.3999
 4192SOL     OW14016   6.155   1.777   2.167  0.4447  0.3488  0.5973
 4192SOL    HW114017   6.148   1.719   2.243  0.0002 -0.4937 -0.0597
 4192SOL    HW214018   6.165   1.865   2.204  0.1808 -0.0383  1.6243
 4193SOL     OW14019   3.747   2.600   2.066  0.4115  0.2337  0.5240
 4193SOL    HW114020   3.795   2.536   2.118  0.0169  0.4668  1.1913
 4193SOL    HW214021   3.813   2.637   2.007  0.6541 -0.7431  0.1606
 4194SOL     OW14022   5.017   4.504  10.300 -0.4699  0.2227  0.1797
 4194SOL    HW114023   5.096   4.556  10.285  0.5480 -1.6573 -1.4346
 4194SOL    HW214024   4.949   4.549  10.249  0.1269  0.5614 -0.3288
 4195SOL     OW14025   1.409   5.919   1.553 -0.0306  0.0668 -0.0874
 4195SOL    HW114026   1.351   5.892   1.481 -0.8422 -1.4580  1.0870
 4195SOL    HW214027   1.456   5.995   1.518 -1.1332 -0.0039 -1.8631
 4196SOL     OW14028   3.024   7.837   5.946 -0.8264  0.2258 -0.3479
 4196SOL    HW114029   2.935   7.865   5.925 -0.7492  0.2693 -0.6204
 4196SOL    HW214030   3.038   7.867   6.036 -0.7090  1.1738 -0.6680
 4197SOL     OW14031   4.276   5.356   2.980  0.4188  0.2064  0.1593
 4197SOL    HW114032   4.242   5.440   3.011 -2.4022 -0.1880 -1.5291
 4197SOL    HW214033   4.371   5.369   2.974  0.1583  2.9697  0.7741
 4198SOL     OW14034   5.601   2.275   0.977 -0.4936  0.1062  0.1886
 4198SOL    HW114035   5.633   2.362   1.002  0.2449  0.5091 -1.9518
 4198SOL    HW214036   5.512   2.290   0.945 -0.8670 -0.1621  1.0710
 4199SOL     OW14037   5.033   5.679   8.904 -0.2522  0.2983  0.2649
 4199SOL    HW114038   5.069   5.767   8.898  0.6103 -0.1047 -0.7322
 4199SOL    HW214039   5.101   5.627   8.946 -0.1594 -0.1921 -0.4698
 4200SOL     OW14040   5.270   1.026   0.159 -0.0136 -0.2205  0.7622
 4200SOL    HW114041   5.339   1.056   0.219  1.4198  0.9514 -1.3085
 4200SOL    HW214042   5.318   0.989   0.085 -1.5437  1.1996 -1.0519
 4201SOL     OW14043   6.357   5.024  10.332 -0.6248 -0.4783 -0.5151
 4201SOL    HW114044   6.447   4.992  10.335  0.3993  1.7942 -2.8937
 4201SOL    HW214045   6.363   5.116  10.360 -2.1767 -0.2634 -0.7691
 4202SOL     OW14046   6.585   4.756   6.476 -0.4322  0.0376  0.3111
 4202SOL    HW114047   6.595   4.789   6.387 -2.0929  1.4686  0.6096
 4202SOL    HW214048   6.504   4.705   6.474  0.4930 -1.5180  0.6001
 4203SOL     OW14049   6.051   2.740   7.855  0.3334  0.0008  0.3323
 4203SOL    HW114050   6.133   2.713   7.814  0.0790  0.4110 -0.4701
 4203SOL    HW214051   6.063   2.833   7.874 -0.2255  0.2705 -0.5448
 4204SOL     OW14052   2.198   4.808   8.385 -0.0122 -0.2110  0.1127
 4204SOL    HW114053   2.169   4.814   8.476  1.8862 -0.4939  0.7675
 4204SOL    HW214054   2.286   4.844   8.385 -0.5611  1.3319 -1.9497
 4205SOL     OW14055   4.272   0.557  11.715  0.1520  0.2848 -0.1857
 4205SOL    HW114056   4.179   0.573  11.729 -0.2733 -1.7295 -0.3612
 4205SOL    HW214057   4.276   0.505  11.635  1.5435  1.2504 -0.7956
 4206SOL     OW14058   3.825   0.553   8.337  0.2257 -0.1307 -0.0101
 4206SOL    HW114059   3.838   0.604   8.417  1.6338  2.5729 -1.8151
 4206SOL    HW214060   3.740   0.582   8.303  0.9206  0.9405 -0.9154
 4207SOL     OW14061   7.506   6.832   3.244  0.5466 -0.0920  0.6080
 4207SOL    HW114062   7.553   6.890   3.304 -1.3603  0.4023  1.7308
 4207SOL    HW214063   7.414   6.858   3.254 -0.1391 -1.9599 -0.3921
 4208SOL     OW14064   6.588   2.968   3.801  0.0909 -0.2222 -0.0142
 4208SOL    HW114065   6.527   2.918   3.747 -1.2405  0.0409  1.1766
 4208SOL    HW214066   6.649   2.902   3.835  0.1457 -0.5771 -0.7866
 4209SOL     OW14067   5.846   4.571   1.547  0.4733  0.2303  0.1542
 4209SOL    HW114068   5.768   4.532   1.508  1.4796 -2.0291  0.2334
 4209SOL    HW214069   5.906   4.585   1.474  0.5906  0.4214  0.2855
 4210SOL     OW14070   6.265   1.872   5.548 -0.1075  0.2364  0.5741
 4210SOL    HW114071   6.170   1.881   5.544 -0.1037  0.6074  1.2004
 4210SOL    HW214072   6.285   1.866   5.641  0.3173 -1.8061  0.3867
 4211SOL     OW14073   7.127   1.592   5.529 -0.0326 -0.0739  0.3958
 4211SOL    HW114074   7.136   1.497   5.536  0.4577 -0.2002 -1.4845
 4211SOL    HW214075   7.043   1.612   5.571 -0.8904 -1.5303 -0.5859
 4212SOL     OW14076   5.347   4.651   7.615 -0.2782  0.1516  0.4192
 4212SOL    HW114077   5.405   4.608   7.552 -1.1306  0.5781 -0.6825
 4212SOL    HW214078   5.314   4.728   7.569 -2.8373 -0.8247  0.4629
 4213SOL     OW14079   7.425   3.989   3.542  0.2476  0.2930  0.1891
 4213SOL    HW114080   7.354   4.053   3.536 -0.0019  0.1847  1.6020
 4213SOL    HW214081   7.502   4.040   3.566  0.9986  0.5967 -2.5819
 4214SOL     OW14082   7.410   6.423   7.767 -0.0975 -0.1616 -0.0867
 4214SOL    HW114083   7.323   6.453   7.792  0.2117  0.9745 -0.3041
 4214SOL    HW214084   7.465   6.442   7.842  0.1434 -0.0383 -0.2922
 4215SOL     OW14085   6.259   0.822   1.597 -0.3894 -0.4186 -0.2049
 4215SOL    HW114086   6.344   0.814   1.553 -0.5913 -0.5790 -0.5749
 4215SOL    HW214087   6.229   0.732   1.608 -1.4163 -0.3183 -1.8833
 4216SOL     OW14088   1.433   4.620   8.083  0.5250  0.1263 -0.5951
 4216SOL    HW114089   1.480   4.611   8.166 -0.4705 -0.4228 -0.0776
 4216SOL    HW214090   1.370   4.691   8.098 -0.5097 -0.7943 -0.4550
 4217SOL     OW14091   7.382   7.767   7.500 -0.2465 -0.2417 -0.2470
 4217SOL    HW114092   7.341   7.802   7.579 -1.4495  0.6968 -1.2376
 4217SOL    HW214093   7.315   7.778   7.432  1.4553  0.8546 -1.8299
 4218SOL     OW14094   4.239   7.129   0.629  0.1945 -0.3478 -0.1894
 4218SOL    HW114095   4.309   7.084   0.676 -1.3652 -2.0176  0.6220
 4218SOL    HW214096   4.161   7.117   0.683 -1.0731  0.1020 -1.8272
 4219SOL     OW14097   5.507   4.741   8.049  0.3271  0.4309  0.4142
 4219SOL    HW114098   5.486   4.762   7.958 -1.1264 -0.4286  0.5093
 4219SOL    HW214099   5.422   4.723   8.089  0.7856  2.1003  2.2996
 4220SOL     OW14100   3.966   6.638   6.849  0.1971 -0.0131 -0.3746
 4220SOL    HW114101   3.903   6.683   6.792 -0.0431 -0.5146 -0.5070
 4220SOL    HW214102   4.051   6.654   6.808  0.5036  2.6974  1.0574
 4221SOL     OW14103   4.810   3.709   2.239 -0.1739 -0.0772  0.1008
 4221SOL    HW114104   4.880   3.677   2.297 -1.5121 -1.2879  1.1240
 4221SOL    HW214105   4.797   3.800   2.266 -0.2682 -0.4038  1.2358
 4222SOL     OW14106   6.562   6.525  11.285 -0.1357  0.2965  0.0362
 4222SOL    HW114107   6.619   6.590  11.326  0.8346  1.2428 -2.5795
 4222SOL    HW214108   6.503   6.497  11.355  0.9555  2.2522  1.8491
 4223SOL     OW14109   7.887   7.593   0.603  0.5680 -0.1755 -0.0716
 4223SOL    HW114110   7.895   7.555   0.515  2.5102  0.5838 -0.2567
 4223SOL    HW214111   7.955   7.550   0.654  0.4401  0.4829  0.6749
 4224SOL     OW14112   7.423   2.607   9.974  0.6298  0.1996 -0.4282
 4224SOL    HW114113   7.392   2.554   9.900 -0.2387 -1.0249  0.7813
 4224SOL    HW214114   7.511   2.572   9.992  0.2950 -0.4487 -0.0150
 4225SOL     OW14115   0.685   5.192   7.032 -0.0266  0.4016 -0.1501
 4225SOL    HW114116   0.690   5.277   7.076 -0.9221  0.9745 -1.1240
 4225SOL    HW214117   0.627   5.206   6.958  0.5640 -0.8368 -0.8822
 4226SOL     OW14118   3.891   1.644   4.519 -0.2844  0.7358  0.2058
 4226SOL    HW114119   3.931   1.705   4.580  0.2695  2.1217 -1.4538
 4226SOL    HW214120   3.817   1.607   4.567  1.5166 -0.0924  2.5271
 4227SOL     OW14121   7.734   6.918   2.183  0.0904  0.6144  0.0230
 4227SOL    HW114122   7.719   6.866   2.104  0.9658 -0.4481  0.5305
 4227SOL    HW214123   7.820   6.890   2.214 -0.1685  1.1264  1.2637
 4228SOL     OW14124   0.245   5.263   9.270  0.0262  0.2864  0.4551
 4228SOL    HW114125   0.317   5.202   9.256 -0.1149  0.2384 -0.0684
 4228SOL    HW214126   0.166   5.213   9.250 -0.0745  0.7253 -0.2688
 4229SOL     OW14127   3.836   7.170   0.535  0.7910  0.2538  0.0812
 4229SOL    HW114128   3.844   7.085   0.491  1.2912  0.6412 -0.6049
 4229SOL    HW214129   3.853   7.151   0.627  1.3367 -0.3234 -0.1261
 4230SOL     OW14130   6.222   6.362   3.602  0.5389  0.2426  0.4405
 4230SOL    HW114131   6.162   6.376   3.675  0.6130  0.4115  0.4690
 4230SOL    HW214132   6.268   6.445   3.593 -0.0426  0.4983 -0.3213
 4231SOL     OW14133   3.299   7.400   6.339  0.6065  0.0422  0.1615
 4231SOL    HW114134   3.214   7.392   6.297 -0.3081  1.9570  1.4951
 4231SOL    HW214135   3.292   7.349   6.420  0.2405  1.1897  0.8846
 4232SOL     OW14136   3.973   0.473  11.994 -0.1747  0.0096  0.0953
 4232SOL    HW114137   3.882   0.465  12.021 -0.2785 -0.8954 -0.4745
 4232SOL    HW214138   3.971   0.527  11.915 -0.3966 -1.1496 -0.7249
 4233SOL     OW14139   6.893   7.748   2.829 -0.2523  0.4460  0.4492
 4233SOL    HW114140   6.986   7.771   2.826  0.3739 -1.8999 -0.3721
 4233SOL    HW214141   6.856   7.787   2.750  0.4727 -0.1830 -0.2171
 4234SOL     OW14142   7.552   4.889   4.038  0.3066 -0.3195  0.0017
 4234SOL    HW114143   7.484   4.883   3.972 -0.2781  1.7850  0.3469
 4234SOL    HW214144   7.586   4.800   4.045 -1.8504 -1.2756 -0.7430
 4235SOL     OW14145   3.812   7.721   2.468 -0.3951 -0.2635 -0.1463
 4235SOL    HW114146   3.750   7.676   2.524 -0.4963  1.1084  0.9018
 4235SOL    HW214147   3.762   7.792   2.428 -0.2529 -1.0341 -1.7879
 4236SOL     OW14148   7.291   0.285   4.501  0.6650 -0.3828  0.0930
 4236SOL    HW114149   7.213   0.289   4.445 -0.3197  0.4692  1.4442
 4236SOL    HW214150   7.284   0.201   4.546  0.0684  0.0465  0.8175
 4237SOL     OW14151   3.277   2.832   5.870 -0.2460 -0.4732  0.6015
 4237SOL    HW114152   3.209   2.775   5.833 -0.3603 -0.2828  0.5208
 4237SOL    HW214153   3.334   2.772   5.919  0.2843 -0.8309 -0.4126
 4238SOL     OW14154   5.387   7.574   1.809 -0.1052 -0.4300  0.0516
 4238SOL    HW114155   5.464   7.597   1.862 -1.1381  1.8822  0.6600
 4238SOL    HW214156   5.409   7.605   1.721 -0.8661  1.6699  0.5418
 4239SOL     OW14157   2.774   7.033  10.517 -0.6797 -0.4323 -0.2719
 4239SOL    HW114158   2.703   6.987  10.562 -1.9684  1.9052  0.2110
 4239SOL    HW214159   2.730   7.083  10.448  0.6931 -0.0645 -0.9150
 4240SOL     OW14160   5.369   5.099   2.803 -0.4391  0.1192 -0.2938
 4240SOL    HW114161   5.429   5.120   2.732 -0.8404 -2.0110 -1.3389
 4240SOL    HW214162   5.314   5.028   2.769 -2.5808  0.9788  1.1434
 4241SOL     OW14163   7.735   0.947   6.721  0.2698  0.5677  0.2812
 4241SOL    HW114164   7.801   1.016   6.717 -0.4572  1.2277 -0.5895
 4241SOL    HW214165   7.767   0.880   6.661  1.1313 -0.0201  1.3574
 4242SOL     OW14166   7.274   5.760   3.860 -0.3610 -0.1705  0.0670
 4242SOL    HW114167   7.362   5.770   3.895  0.0043  1.9739 -1.2663
 4242SOL    HW214168   7.286   5.714   3.778 -0.6337 -0.8992  0.4313
 4243SOL     OW14169   3.306   3.283   0.341 -0.5079 -0.3793  0.1252
 4243SOL    HW114170   3.388   3.311   0.381  1.0464 -1.8466 -1.8103
 4243SOL    HW214171   3.273   3.361   0.295 -0.6817  0.4366  1.5670
 4244SOL     OW14172   1.616   3.478   3.202  0.2790  0.2532 -0.0656
 4244SOL    HW114173   1.654   3.525   3.276 -0.5403  0.8751 -0.0170
 4244SOL    HW214174   1.631   3.386   3.220  0.2407  0.4111  0.7934
 4245SOL     OW14175   7.062   1.899   0.539 -0.2546 -0.5896  0.1332
 4245SOL    HW114176   7.109   1.977   0.568 -0.3034 -0.2439 -0.7003
 4245SOL    HW214177   7.107   1.872   0.459 -0.5569 -1.1208  0.1369
 4246SOL     OW14178   4.131   0.865   1.606 -0.0560  0.4013 -0.6385
 4246SOL    HW114179   4.040   0.859   1.578  0.0463  0.1078 -0.9185
 4246SOL    HW214180   4.142   0.794   1.669  0.0289  0.3149 -0.7495
 4247SOL     OW14181   0.358   0.931  10.227 -0.4989 -0.4118 -0.2966
 4247SOL    HW114182   0.290   0.868  10.250 -0.9655  0.1518 -0.0944
 4247SOL    HW214183   0.311   1.004  10.186 -0.0368  0.0194 -0.0808
 4248SOL     OW14184   7.885   3.876   9.858 -0.2016 -0.5105 -0.2471
 4248SOL    HW114185   7.916   3.951   9.807  0.0374  0.0797  0.7391
 4248SOL    HW214186   7.865   3.809   9.792 -0.0451  0.2739 -1.1214
 4249SOL     OW14187   7.706   5.378   5.227  0.0611  0.3135  0.2470
 4249SOL    HW114188   7.730   5.339   5.143  1.4992  0.0965  0.7405
 4249SOL    HW214189   7.640   5.319   5.262  0.9843 -0.7633  0.2126
 4250SOL     OW14190   2.959   4.520  11.650 -0.0921 -0.2486  0.0909
 4250SOL    HW114191   3.006   4.450  11.604  0.7043 -1.0355  2.0059
 4250SOL    HW214192   2.871   4.485  11.662  0.1672 -0.7460  0.6139
 4251SOL     OW14193   6.428   6.888   7.221  0.2755 -0.6293 -0.0857
 4251SOL    HW114194   6.386   6.923   7.142  0.7798  0.2144  0.0090
 4251SOL    HW214195   6.521   6.909   7.210  0.3342 -0.3908  0.7868
 4252SOL     OW14196   5.470   7.263   1.691 -0.2874  0.2265  0.0215
 4252SOL    HW114197   5.527   7.320   1.640 -0.9308  0.5428 -0.3584
 4252SOL    HW214198   5.390   7.314   1.704 -1.0319 -0.7327 -0.6602
 4253SOL     OW14199   2.067   1.257   2.511  0.5416  0.0334  0.3504
 4253SOL    HW114200   1.976   1.246   2.539 -0.3757 -0.6056 -2.5564
 4253SOL    HW214201   2.065   1.332   2.451  1.5947 -0.9257 -0.9510
 4254SOL     OW14202   3.364   6.400   9.068  0.3098 -0.1207 -0.3487
 4254SOL    HW114203   3.295   6.336   9.090 -0.6117  1.0658  0.3449
 4254SOL    HW214204   3.342   6.429   8.980  0.2443 -0.1683 -0.3488
 4255SOL     OW14205   5.870   7.797   2.177 -0.1279 -0.2432  0.2184
 4255SOL    HW114206   5.848   7.864   2.113 -1.0964 -1.6105 -0.9462
 4255SOL    HW214207   5.905   7.724   2.125  1.1398 -0.5754  1.4604
 4256SOL     OW14208   2.036   6.408   8.226 -0.4786 -0.0595 -0.0494
 4256SOL    HW114209   2.056   6.486   8.277 -1.8189  1.1453 -1.3002
 4256SOL    HW214210   2.115   6.392   8.175 -1.1110  2.2255 -1.9095
 4257SOL     OW14211   0.886   2.102   8.158 -0.3976 -0.0679 -0.3014
 4257SOL    HW114212   0.892   2.195   8.134  0.1681  0.5521  2.0066
 4257SOL    HW214213   0.836   2.102   8.240 -0.7420 -1.8558 -0.4870
 4258SOL     OW14214   6.711   4.492   0.491  0.4231 -0.1926 -0.5756
 4258SOL    HW114215   6.719   4.458   0.402 -1.3412 -0.2775 -0.7395
 4258SOL    HW214216   6.756   4.427   0.545  0.5330 -0.7310 -1.2916
 4259SOL     OW14217   7.348   1.890   0.752  0.2597  0.0599 -0.0261
 4259SOL    HW114218   7.272   1.948   0.751  0.3520  0.2524 -2.5182
 4259SOL    HW214219   7.417   1.940   0.708  0.8205 -1.2831 -0.7410
 4260SOL     OW14220   3.462   2.660   2.069  0.2484  0.1074  0.0318
 4260SOL    HW114221   3.401   2.591   2.042 -0.5378  0.7901  0.0338
 4260SOL    HW214222   3.548   2.619   2.063  0.0081 -0.2351 -2.1512
 4261SOL     OW14223   5.137   1.858  10.192  0.4378  0.0694 -0.4981
 4261SOL    HW114224   5.144   1.867  10.287 -2.6187 -1.8375  0.0196
 4261SOL    HW214225   5.196   1.786  10.170 -1.5181 -1.9864  0.5989
 4262SOL     OW14226   0.973   5.998  11.336  0.0503 -0.6165 -0.2394
 4262SOL    HW114227   1.020   5.926  11.379  0.4736  0.0436  0.4361
 4262SOL    HW214228   1.035   6.072  11.340 -0.7508  0.0581 -0.0200
 4263SOL     OW14229   0.772   3.629   4.588  0.3970 -0.5456 -0.2794
 4263SOL    HW114230   0.828   3.577   4.645  0.5116 -1.2568 -1.0170
 4263SOL    HW214231   0.790   3.596   4.500  0.4746  0.7517 -0.7755
 4264SOL     OW14232   6.632   6.008   3.148  0.4308  0.0829 -0.1706
 4264SOL    HW114233   6.542   5.980   3.162  0.1373  1.5415  1.0742
 4264SOL    HW214234   6.679   5.979   3.226  1.0569 -0.5935 -0.7710
 4265SOL     OW14235   5.317   0.133   9.835  0.2823  0.1181 -0.1248
 4265SOL    HW114236   5.288   0.043   9.823  1.1735 -0.1479 -0.3494
 4265SOL    HW214237   5.242   0.178   9.873 -0.2763 -0.6423 -0.3185
 4266SOL     OW14238   1.584   6.379   7.804 -0.0415  0.2164  0.0038
 4266SOL    HW114239   1.595   6.379   7.899 -0.7806  0.6414  0.0989
 4266SOL    HW214240   1.587   6.287   7.779 -1.7838 -0.0699  0.6917
 4267SOL     OW14241   5.909   3.612   0.367  0.6884 -0.1974  0.3468
 4267SOL    HW114242   5.988   3.645   0.411  1.0293 -0.7531  0.1598
 4267SOL    HW214243   5.917   3.517   0.372 -1.2110 -0.3055  2.5439
 4268SOL     OW14244   0.282   3.853  12.071 -0.0830 -0.1199  0.4414
 4268SOL    HW114245   0.349   3.865  12.138  1.1982  0.5003 -0.8822
 4268SOL    HW214246   0.218   3.923  12.088  0.6986  0.5941  0.4751
 4269SOL     OW14247   6.538   0.086   0.230 -0.1207  0.6371  0.4091
 4269SOL    HW114248   6.628   0.111   0.248 -0.0238  0.5415  0.0563
 4269SOL    HW214249   6.528  -0.001   0.268  0.0690  0.4577  0.0542
 4270SOL     OW14250   0.710   6.059   4.030  0.0444  0.0093  0.0681
 4270SOL    HW114251   0.642   6.058   4.097 -0.2817 -0.8717 -0.2721
 4270SOL    HW214252   0.771   6.127   4.059  0.4857 -1.1032  1.8245
 4271SOL     OW14253   5.988   6.811   3.866  0.6775  0.3913  0.2466
 4271SOL    HW114254   6.061   6.866   3.895 -0.8248  2.2726  0.7008
 4271SOL    HW214255   5.911   6.850   3.908 -0.7335 -0.8940 -1.0200
 4272SOL     OW14256   7.683   2.590   5.561  0.4733 -0.6621 -0.0550
 4272SOL    HW114257   7.771   2.559   5.538  0.4932 -0.3466 -0.4118
 4272SOL    HW214258   7.699   2.667   5.616  0.4190 -0.8537  0.2332
 4273SOL     OW14259   3.126   5.906  11.587 -0.0751 -0.1108  0.2142
 4273SOL    HW114260   3.109   5.967  11.515 -1.6023 -2.2569 -1.4122
 4273SOL    HW214261   3.210   5.866  11.566 -0.0600 -0.0373  0.1367
 4274SOL     OW14262   5.573   0.824   3.791 -0.0234 -0.5196  0.3166
 4274SOL    HW114263   5.530   0.872   3.861 -0.2159 -0.2499  0.0151
 4274SOL    HW214264   5.513   0.831   3.717  0.7074  0.1771 -0.2257
 4275SOL     OW14265   1.239   3.724   7.017 -0.0165  0.7143 -0.3282
 4275SOL    HW114266   1.288   3.648   7.049  0.2462  1.0794  0.1451
 4275SOL    HW214267   1.239   3.713   6.922 -0.4715 -0.1758 -0.2438
 4276SOL     OW14268   6.517   6.880   2.436 -0.2335 -0.1495  0.0603
 4276SOL    HW114269   6.577   6.851   2.505 -0.9944  0.2438  0.9071
 4276SOL    HW214270   6.555   6.962   2.404 -0.9128  0.7543  1.4438
 4277SOL     OW14271   1.740   1.981   6.928  0.4571  0.4484 -0.3462
 4277SOL    HW114272   1.693   1.923   6.868  2.1675 -1.8237  0.3912
 4277SOL    HW214273   1.691   1.976   7.010  0.4453  0.2342 -0.3652
 4278SOL     OW14274   5.953   2.237   4.211  0.3631  0.3860  0.0168
 4278SOL    HW114275   5.945   2.329   4.184 -0.4854 -0.0463 -1.3363
 4278SOL    HW214276   5.879   2.193   4.169  0.7964 -0.9437  0.5745
 4279SOL     OW14277   6.952   7.027   8.725 -0.3199 -0.1601  0.3534
 4279SOL    HW114278   6.872   6.983   8.696  0.0687 -0.5594 -0.1357
 4279SOL    HW214279   6.970   6.988   8.811  0.7588 -1.9982 -0.6424
 4280SOL     OW14280   1.104   1.039   1.090  0.5419 -0.3685  0.1707
 4280SOL    HW114281   1.157   1.013   1.015 -0.1537 -2.4507  0.3127
 4280SOL    HW214282   1.014   1.038   1.058  0.3052 -0.4302  0.8130
 4281SOL     OW14283   4.005   4.191  11.896 -0.2566  0.3058 -0.0186
 4281SOL    HW114284   4.035   4.100  11.889  1.2732  0.7314  0.7232
 4281SOL    HW214285   4.076   4.237  11.940 -1.1785  1.7966 -0.0143
 4282SOL     OW14286   5.244   7.803   9.855 -0.4945 -0.3467  0.2219
 4282SOL    HW114287   5.325   7.756   9.836  0.9966  2.0945  0.0862
 4282SOL    HW214288   5.219   7.774   9.943  0.8879 -0.7070  0.5171
 4283SOL     OW14289   6.872   3.182  10.206 -0.5872  0.3709  0.1418
 4283SOL    HW114290   6.873   3.203  10.300 -1.3443 -0.6336  0.3939
 4283SOL    HW214291   6.907   3.093  10.202 -0.5907  0.4002 -0.5382
 4284SOL     OW14292   3.706   6.721   6.102 -0.3014 -0.1782  0.4450
 4284SOL    HW114293   3.714   6.635   6.061  0.5367 -0.8364  1.9206
 4284SOL    HW214294   3.790   6.736   6.144  0.0278  1.9646 -0.8265
 4285SOL     OW14295   3.180   5.807   4.934 -0.2317  0.2154 -0.2157
 4285SOL    HW114296   3.105   5.852   4.972  0.0769  0.4627  0.1101
 4285SOL    HW214297   3.253   5.827   4.993 -0.0637 -0.6305 -0.1198
 4286SOL     OW14298   3.258   5.451   2.846 -0.5028  0.1448  0.4591
 4286SOL    HW114299   3.238   5.544   2.847 -0.1251  0.2684 -1.2941
 4286SOL    HW214300   3.354   5.447   2.844 -0.4384 -0.3437  2.2679
 4287SOL     OW14301   1.667   5.520   9.593 -0.2074  0.5164 -0.4765
 4287SOL    HW114302   1.741   5.552   9.645  0.8770 -1.6826 -0.5592
 4287SOL    HW214303   1.596   5.511   9.656  0.7160 -0.8548  0.4438
 4288SOL     OW14304   7.001   6.108   3.999  0.0977  0.5562  0.4467
 4288SOL    HW114305   7.002   6.107   4.095 -1.7796  0.9273  0.5107
 4288SOL    HW214306   6.937   6.176   3.977  1.2526  1.2018 -1.0989
 4289SOL     OW14307   7.794   0.073  11.753  0.6888 -0.5552  0.1934
 4289SOL    HW114308   7.814   0.062  11.846 -0.3045  1.3365  0.6866
 4289SOL    HW214309   7.819   0.164  11.734 -1.2857 -0.1627 -0.7700
 4290SOL     OW14310   5.907   0.641  10.961 -0.7142 -0.4901 -0.8199
 4290SOL    HW114311   5.963   0.595  11.024 -0.7221 -1.0119 -1.1883
 4290SOL    HW214312   5.954   0.723  10.943 -1.0626 -0.0042  0.3952
 4291SOL     OW14313   1.638   1.614   0.446  0.0091 -0.2976  0.0132
 4291SOL    HW114314   1.654   1.645   0.357 -0.6027  0.2220  0.0782
 4291SOL    HW214315   1.724   1.610   0.486  0.1565  0.8618 -0.1555
 4292SOL     OW14316   5.525   3.565   3.836  0.2684 -0.0287  0.1582
 4292SOL    HW114317   5.584   3.527   3.900  0.4566 -1.6023 -0.9111
 4292SOL    HW214318   5.577   3.631   3.791  1.1043 -1.0964 -0.4754
 4293SOL     OW14319   5.892   2.892  12.299 -0.1578 -0.1039 -0.1823
 4293SOL    HW114320   5.910   2.899  12.205 -0.4503  0.1991 -0.2170
 4293SOL    HW214321   5.973   2.856  12.336  0.6252  1.4514 -0.2981
 4294SOL     OW14322   6.463   0.180   3.834 -0.3657  0.0053  0.3934
 4294SOL    HW114323   6.494   0.090   3.842  1.6667  0.6093  0.1333
 4294SOL    HW214324   6.425   0.184   3.746 -1.8108 -0.9187  0.9380
 4295SOL     OW14325   3.013   6.992   2.574 -0.4900  0.0964  0.0768
 4295SOL    HW114326   2.964   7.051   2.516  0.2973 -0.0789 -0.7831
 4295SOL    HW214327   3.048   7.050   2.642 -2.4857  0.1174  1.1382
 4296SOL     OW14328   5.580   1.116  11.988 -0.2695 -0.3755  0.2959
 4296SOL    HW114329   5.589   1.030  12.028  1.5690 -0.6989 -0.6899
 4296SOL    HW214330   5.614   1.177  12.054  1.8069 -0.8056 -0.3133
 4297SOL     OW14331   2.563   1.799   7.436  0.1771 -0.0569 -0.4385
 4297SOL    HW114332   2.473   1.767   7.427 -0.5037  2.1195 -2.1780
 4297SOL    HW214333   2.603   1.783   7.351  0.9641  0.3244 -0.1474
 4298SOL     OW14334   2.177   3.979   4.381  0.7268 -0.0164 -0.1133
 4298SOL    HW114335   2.161   4.045   4.449 -1.7051  0.9255 -1.4616
 4298SOL    HW214336   2.177   4.029   4.299 -2.2641 -1.6982 -1.2830
 4299SOL     OW14337   5.743   1.186   5.556  0.3581  0.3390  0.5589
 4299SOL    HW114338   5.788   1.224   5.480 -0.0587  0.2672  0.2745
 4299SOL    HW214339   5.750   1.254   5.624  1.4878  0.0606  0.7446
 4300SOL     OW14340   5.956   1.984   7.238 -0.0307 -0.3117  0.5413
 4300SOL    HW114341   6.027   1.987   7.173 -1.3060 -0.4645 -0.9192
 4300SOL    HW214342   5.950   2.073   7.271 -1.0818  0.4429 -1.5326
 4301SOL     OW14343   0.609   7.051   7.063  0.1127 -0.3695 -0.1125
 4301SOL    HW114344   0.659   7.125   7.097 -2.0593  1.3397 -0.4164
 4301SOL    HW214345   0.676   6.988   7.035  2.0393  1.2395  0.5937
 4302SOL     OW14346   4.860   3.003   9.661  0.2628 -0.3406 -0.3628
 4302SOL    HW114347   4.876   2.913   9.689 -1.4493 -0.8047 -0.7905
 4302SOL    HW214348   4.765   3.010   9.655  0.0744  2.5293  2.9221
 4303SOL     OW14349   0.277   2.400   1.517  0.1004  0.3697 -0.1314
 4303SOL    HW114350   0.277   2.493   1.495  0.0466  0.9675  2.2246
 4303SOL    HW214351   0.300   2.357   1.434 -0.7707  2.3790 -1.5080
 4304SOL     OW14352   2.085   3.238  11.947 -0.9060  0.0026 -0.5073
 4304SOL    HW114353   2.049   3.326  11.934 -0.0233  0.4596 -0.0268
 4304SOL    HW214354   2.051   3.210  12.032 -1.1319 -0.0921 -0.6291
 4305SOL     OW14355   4.581   2.565   3.811 -0.3758  0.0982  0.4556
 4305SOL    HW114356   4.569   2.660   3.808  0.7029  0.2430  0.1858
 4305SOL    HW214357   4.573   2.543   3.904  1.0334  0.7156  0.7605
 4306SOL     OW14358   7.621   1.677  11.367  0.3938  0.6237 -0.5190
 4306SOL    HW114359   7.656   1.645  11.283  1.8474  0.3231  0.1730
 4306SOL    HW214360   7.528   1.692  11.350  0.6211  0.3839 -2.1343
 4307SOL     OW14361   0.314   3.186   5.802 -0.5947  0.8066 -0.0670
 4307SOL    HW114362   0.361   3.187   5.718 -1.5230  2.3604 -0.6094
 4307SOL    HW214363   0.238   3.129   5.786 -0.4360  0.5957 -0.0777
 4308SOL     OW14364   0.523   0.458   5.777 -0.3053  0.2835  0.2245
 4308SOL    HW114365   0.496   0.513   5.703  0.3773 -1.2805 -1.2698
 4308SOL    HW214366   0.470   0.488   5.850 -1.6116  1.3665 -1.1044
 4309SOL     OW14367   6.480   3.671   6.179 -0.2713 -0.2514  0.2651
 4309SOL    HW114368   6.566   3.701   6.210 -0.5222 -0.8281  1.5611
 4309SOL    HW214369   6.419   3.700   6.246 -0.9565 -0.7470 -0.1382
 4310SOL     OW14370   3.080   7.001   8.611  0.1684 -0.2154  0.3232
 4310SOL    HW114371   3.048   7.091   8.605 -0.6330 -0.5037  0.1520
 4310SOL    HW214372   3.173   7.010   8.632 -0.0266  0.6398  0.8588
 4311SOL     OW14373   7.761   1.493   8.183  0.0220  0.5399 -0.3492
 4311SOL    HW114374   7.819   1.458   8.115 -1.6070  0.1396 -1.5876
 4311SOL    HW214375   7.740   1.417   8.237  0.1344  0.5584 -0.2781
 4312SOL     OW14376   1.168   3.977   7.542  0.0413  0.2433  0.1344
 4312SOL    HW114377   1.155   3.927   7.461 -0.2749  0.0263  0.3151
 4312SOL    HW214378   1.259   3.959   7.566  0.2269  0.5488 -0.3301
 4313SOL     OW14379   4.133   4.629   3.157 -0.3819 -0.1310 -0.3899
 4313SOL    HW114380   4.058   4.589   3.202 -0.5222  0.7371  0.1697
 4313SOL    HW214381   4.181   4.673   3.227  0.4193 -0.3118 -0.8174
 4314SOL     OW14382   0.442   0.112   4.842 -0.3279  0.2122 -0.1023
 4314SOL    HW114383   0.436   0.148   4.754  1.0791  2.4520  0.6311
 4314SOL    HW214384   0.497   0.034   4.832 -0.1744  0.4461 -1.2093
 4315SOL     OW14385   0.299   2.116   0.566 -0.2043 -0.0156  0.2479
 4315SOL    HW114386   0.225   2.158   0.611 -0.3607 -0.6561  0.6161
 4315SOL    HW214387   0.351   2.078   0.637  0.3899  0.2904 -0.0235
 4316SOL     OW14388   1.690   7.337   7.966  0.2142  0.1295 -0.5332
 4316SOL    HW114389   1.691   7.242   7.952 -0.8291  0.1894 -1.1313
 4316SOL    HW214390   1.779   7.365   7.946  0.7075 -0.7974  0.2629
 4317SOL     OW14391   4.667   7.366   2.622  0.0882  0.8607  0.5743
 4317SOL    HW114392   4.715   7.446   2.599 -0.7052  0.8377 -1.3801
 4317SOL    HW214393   4.642   7.328   2.538 -0.2671 -1.0323  1.4790
 4318SOL     OW14394   6.626   7.091   6.549  0.6767 -0.0095 -0.0214
 4318SOL    HW114395   6.625   7.185   6.532  1.3940 -0.0817 -0.4777
 4318SOL    HW214396   6.645   7.084   6.642  1.0262  0.2892 -0.0668
 4319SOL     OW14397   0.495   4.001   7.480  0.2084 -0.2771 -0.4630
 4319SOL    HW114398   0.444   3.948   7.541  1.7837 -2.5685 -1.0368
 4319SOL    HW214399   0.527   4.074   7.533 -1.5022 -0.1695  0.4964
 4320SOL     OW14400   3.522   5.844   0.224  0.7957  0.8300  0.9118
 4320SOL    HW114401   3.496   5.763   0.268 -0.1553  1.8199  2.2552
 4320SOL    HW214402   3.492   5.833   0.134 -1.7394  0.7176  1.6916
 4321SOL     OW14403   4.866   6.334   8.680 -0.0560 -0.0986 -0.1905
 4321SOL    HW114404   4.865   6.399   8.750  0.8843 -0.9299  0.6313
 4321SOL    HW214405   4.891   6.383   8.602 -2.8930  1.2219 -0.4033
 4322SOL     OW14406   4.441   2.965   0.124  0.6572  0.2303 -0.3761
 4322SOL    HW114407   4.531   2.967   0.156  1.0314 -2.5194 -1.0334
 4322SOL    HW214408   4.403   2.887   0.166 -0.6835  0.0083 -1.9227
 4323SOL     OW14409   5.172   4.721  11.680  0.1684  0.1995 -0.1641
 4323SOL    HW114410   5.186   4.627  11.669  0.4527  0.2268 -0.0474
 4323SOL    HW214411   5.082   4.728  11.712  0.1439 -0.0321 -0.1777
 4324SOL     OW14412   5.276   4.289   3.855  0.6281 -0.1377  0.5121
 4324SOL    HW114413   5.205   4.277   3.918 -0.1404 -1.3001 -0.5586
 4324SOL    HW214414   5.233   4.303   3.771  1.6480  1.1670  0.1523
 4325SOL     OW14415   2.417   1.662   5.338  0.2721  0.6258  0.0912
 4325SOL    HW114416   2.471   1.595   5.381  3.0123  1.9076 -1.1908
 4325SOL    HW214417   2.327   1.638   5.363  1.1894 -2.7686  0.7217
 4326SOL     OW14418   2.365   7.873   0.253 -0.5162  0.2462 -0.8515
 4326SOL    HW114419   2.364   7.843   0.162 -0.5370 -0.0892 -0.7422
 4326SOL    HW214420   2.295   7.824   0.296  0.0086 -0.1931 -0.4713
 4327SOL     OW14421   1.110   3.989   8.129 -0.1618  0.0131 -0.0628
 4327SOL    HW114422   1.115   4.054   8.059  0.6386 -0.5351 -0.5282
 4327SOL    HW214423   1.140   4.036   8.207  1.6512 -0.1162 -0.6388
 4328SOL     OW14424   0.484   4.793   2.080  0.1374 -0.2649  0.0100
 4328SOL    HW114425   0.418   4.840   2.132  1.7848  1.2438  0.8645
 4328SOL    HW214426   0.441   4.776   1.996 -1.2136  1.0344  0.3930
 4329SOL     OW14427   4.008   6.248   6.346 -0.0273 -0.0671 -0.2064
 4329SOL    HW114428   3.921   6.259   6.306 -1.5303  1.7346  3.0785
 4329SOL    HW214429   4.062   6.316   6.306 -0.7422  0.1433 -0.8384
 4330SOL     OW14430   5.524   5.899   8.204 -0.0776 -0.6094 -0.3924
 4330SOL    HW114431   5.479   5.981   8.181  0.7127  0.2438  0.9624
 4330SOL    HW214432   5.454   5.833   8.206 -0.7275  0.0110 -1.5184
 4331SOL     OW14433   4.683   6.816   3.836 -0.1847 -0.1185 -0.7271
 4331SOL    HW114434   4.725   6.898   3.810 -0.0339 -0.8056 -2.8277
 4331SOL    HW214435   4.593   6.842   3.856  0.5020  0.9395  1.2072
 4332SOL     OW14436   2.691   6.748   5.312 -0.2774  0.3333 -0.1249
 4332SOL    HW114437   2.646   6.755   5.397 -0.0879  2.8733 -0.1504
 4332SOL    HW214438   2.775   6.707   5.332 -0.8075 -0.4040  0.6595
 4333SOL     OW14439   2.186   7.601   5.262 -0.2473 -0.0262  0.1386
 4333SOL    HW114440   2.136   7.655   5.323 -0.0255  0.8680 -0.4395
 4333SOL    HW214441   2.144   7.515   5.265 -1.4962  0.5560  0.0470
 4334SOL     OW14442   3.436   2.740  11.431 -0.2605 -0.1181 -0.4211
 4334SOL    HW114443   3.496   2.669  11.408 -1.1742 -1.3060  0.7046
 4334SOL    HW214444   3.478   2.819  11.397  2.5811 -0.7115  1.3871
 4335SOL     OW14445   0.322   1.793   0.659 -0.1534 -0.5265  0.3136
 4335SOL    HW114446   0.230   1.769   0.654 -0.5723  0.9363  0.6206
 4335SOL    HW214447   0.345   1.822   0.571 -0.2995  0.1342  0.4844
 4336SOL     OW14448   3.812   6.151  11.545  0.2599 -0.0866  0.5324
 4336SOL    HW114449   3.793   6.089  11.475 -1.3719 -0.5044  1.2929
 4336SOL    HW214450   3.751   6.223  11.529  2.1066  1.3844 -0.3308
 4337SOL     OW14451   6.762   6.308   7.527  0.4632 -0.0330 -0.3835
 4337SOL    HW114452   6.743   6.342   7.440 -0.5459 -0.1508 -0.2166
 4337SOL    HW214453   6.759   6.213   7.517  3.2370 -0.1657 -0.8421
 4338SOL     OW14454   2.266   2.177   2.985  0.3086 -0.8530 -0.1994
 4338SOL    HW114455   2.301   2.219   2.906 -0.8582  1.6855  0.5157
 4338SOL    HW214456   2.326   2.203   3.055  0.5409 -1.8883 -0.0035
 4339SOL     OW14457   3.494   6.377   4.843  0.2423 -0.0326 -0.2369
 4339SOL    HW114458   3.452   6.436   4.781  0.1947 -1.5521 -1.7414
 4339SOL    HW214459   3.587   6.380   4.820  0.5974  1.1217  1.1795
 4340SOL     OW14460   4.036   3.361   2.378  0.3193  0.8422  0.0046
 4340SOL    HW114461   4.108   3.345   2.438 -0.0811  1.5678  0.6996
 4340SOL    HW214462   3.997   3.275   2.364  0.3943  0.6670  0.8215
 4341SOL     OW14463   0.157   5.677   0.176  0.3000  0.2346  0.5814
 4341SOL    HW114464   0.170   5.720   0.091 -0.6870 -1.2630 -0.4026
 4341SOL    HW214465   0.224   5.713   0.233  0.9964  1.2843 -0.8487
 4342SOL     OW14466   1.037   5.504  10.131 -0.5992 -0.1118 -0.5567
 4342SOL    HW114467   1.091   5.558  10.189 -2.0365  0.0426  0.6960
 4342SOL    HW214468   1.046   5.545  10.045 -1.0608  1.7420  0.2171
 4343SOL     OW14469   5.441   0.614  11.852 -0.2646 -0.7908 -0.4277
 4343SOL    HW114470   5.397   0.610  11.937  0.8982 -0.7557  0.1995
 4343SOL    HW214471   5.389   0.676  11.801  0.0877  0.6943  0.9155
 4344SOL     OW14472   1.638   2.305   9.224  0.0534  1.2709  0.4191
 4344SOL    HW114473   1.718   2.309   9.277  0.5682 -1.2379 -0.0535
 4344SOL    HW214474   1.592   2.227   9.254  0.3341 -0.2443 -2.6739
 4345SOL     OW14475   5.579   5.071   7.479 -0.0223  0.3318 -0.4487
 4345SOL    HW114476   5.500   5.077   7.533 -0.6757  1.3905 -1.4906
 4345SOL    HW214477   5.561   5.000   7.418  0.3095 -0.1833  0.0358
 4346SOL     OW14478   6.366   7.522   2.406 -0.5072 -0.0617 -0.5774
 4346SOL    HW114479   6.333   7.475   2.482 -1.0779  0.1021 -0.7208
 4346SOL    HW214480   6.296   7.583   2.382 -0.0140  0.4571 -0.7460
 4347SOL     OW14481   3.599   3.160   4.955 -0.1511 -0.5051  0.1399
 4347SOL    HW114482   3.554   3.239   4.987  1.8444  1.0422 -0.6096
 4347SOL    HW214483   3.597   3.100   5.029  0.2304  1.1332  1.5631
 4348SOL     OW14484   6.820   4.897  11.802  0.3024 -0.0810  0.7977
 4348SOL    HW114485   6.874   4.968  11.838 -0.6795  1.3424 -0.4195
 4348SOL    HW214486   6.881   4.825  11.790  0.8420 -0.4128  4.5109
 4349SOL     OW14487   3.366   2.151   1.741  0.0924  0.1301  0.1145
 4349SOL    HW114488   3.446   2.105   1.714  0.9401  1.8673 -0.5255
 4349SOL    HW214489   3.298   2.119   1.681  0.0496 -2.0191  1.2232
 4350SOL     OW14490   5.379   0.285   7.184 -0.2181 -0.0505 -0.6048
 4350SOL    HW114491   5.410   0.206   7.139 -0.5530  1.0247 -2.8735
 4350SOL    HW214492   5.296   0.259   7.225 -0.4957 -0.8104 -1.6116
 4351SOL     OW14493   4.649   7.228   7.762  0.4581 -0.2759  0.2870
 4351SOL    HW114494   4.680   7.298   7.819  0.8047  0.5184 -0.8490
 4351SOL    HW214495   4.626   7.271   7.681  1.2891 -1.5500 -0.6738
 4352SOL     OW14496   7.647   2.061  10.771  0.5895  0.5112  0.1707
 4352SOL    HW114497   7.574   2.071  10.833  0.3171  0.8858 -0.2051
 4352SOL    HW214498   7.718   2.026  10.824 -0.2233 -1.0326  0.3066
 4353SOL     OW14499   5.049   0.326  11.183 -0.1855 -0.1849  0.2615
 4353SOL    HW114500   4.979   0.390  11.168 -0.4832 -0.8014 -1.2013
 4353SOL    HW214501   5.044   0.306  11.276  0.7811  2.8809  1.0803
 4354SOL     OW14502   1.631   6.121   2.583  0.1979  0.4076  0.1192
 4354SOL    HW114503   1.719   6.087   2.570  0.3705  1.4783 -1.8468
 4354SOL    HW214504   1.643   6.215   2.598 -0.4738  0.1933  2.3365
 4355SOL     OW14505   0.000   5.893  10.491  0.3777 -0.2925 -0.1068
 4355SOL    HW114506  -0.013   5.894  10.396  0.6515 -1.4640 -0.1763
 4355SOL    HW214507  -0.042   5.812  10.520  1.2830 -0.5280  0.6107
 4356SOL     OW14508   7.384   7.603   0.164  0.8315  0.7897 -0.2334
 4356SOL    HW114509   7.380   7.623   0.070  1.3565 -1.7569 -0.8767
 4356SOL    HW214510   7.447   7.666   0.199  1.2224  1.2816 -1.7544
 4357SOL     OW14511   3.454   5.799   9.786  0.5089 -0.2970 -0.2619
 4357SOL    HW114512   3.448   5.777   9.693 -1.2095 -0.2646 -0.1922
 4357SOL    HW214513   3.481   5.718   9.829 -0.4187 -0.8006 -0.6095
 4358SOL     OW14514   4.356   3.459   2.167 -0.1522  0.1762 -0.1407
 4358SOL    HW114515   4.359   3.470   2.072  0.3607  0.4830 -0.0956
 4358SOL    HW214516   4.266   3.481   2.191 -0.2458  0.2327 -0.5417
 4359SOL     OW14517   7.081   2.670   8.824  0.2566  0.4103 -0.2555
 4359SOL    HW114518   7.060   2.608   8.894  0.5083  0.5972 -0.0121
 4359SOL    HW214519   7.050   2.754   8.857 -0.4990  0.3409 -0.7805
 4360SOL     OW14520   3.424   1.530   0.755 -0.0752 -0.1021 -0.6152
 4360SOL    HW114521   3.507   1.573   0.733 -0.7980  2.5020  1.3048
 4360SOL    HW214522   3.366   1.550   0.682  0.2230  0.3640 -0.7273
 4361SOL     OW14523   6.443   0.430   2.957  0.2278  1.1042  0.1658
 4361SOL    HW114524   6.465   0.400   3.045  3.6087  1.6034 -0.3940
 4361SOL    HW214525   6.402   0.353   2.915 -1.6524  0.9294  2.1313
 4362SOL     OW14526   7.381   7.398  12.030  0.3918  0.5495 -0.2717
 4362SOL    HW114527   7.362   7.446  11.949  0.8252  1.4082  0.1207
 4362SOL    HW214528   7.477   7.399  12.036  0.5426 -1.9753 -1.1966
 4363SOL     OW14529   3.018   7.375   8.309 -0.0409 -0.6800  0.1441
 4363SOL    HW114530   3.027   7.467   8.334 -1.8160 -0.7216  1.1335
 4363SOL    HW214531   3.093   7.358   8.252  0.7213  1.1700  0.5178
 4364SOL     OW14532   7.464   7.857   0.576 -0.6394 -0.0032 -0.1256
 4364SOL    HW114533   7.504   7.770   0.579 -1.1166 -0.2552 -0.9787
 4364SOL    HW214534   7.461   7.885   0.668  0.2565 -0.5393  0.0808
 4365SOL     OW14535   3.310   4.745   8.388 -0.4374  0.2969 -0.5856
 4365SOL    HW114536   3.244   4.729   8.455  1.2011 -2.8708  0.4480
 4365SOL    HW214537   3.278   4.701   8.310 -0.6862  0.9374 -0.8540
 4366SOL     OW14538   1.854   1.519   1.339 -0.5628  0.2832  0.0854
 4366SOL    HW114539   1.827   1.516   1.247 -1.0194 -0.5931  0.2382
 4366SOL    HW214540   1.920   1.451   1.347  1.2126  1.9098 -0.1052
 4367SOL     OW14541   6.639   0.904   1.416 -0.5865 -0.3170 -0.4907
 4367SOL    HW114542   6.545   0.890   1.400 -0.6303  1.2482 -1.8571
 4367SOL    HW214543   6.681   0.871   1.337 -0.0213 -0.4870 -0.1223
 4368SOL     OW14544   2.861   0.731   0.637 -0.6416  0.0732  0.0271
 4368SOL    HW114545   2.808   0.803   0.603 -0.7115  0.7128  1.4117
 4368SOL    HW214546   2.902   0.766   0.716 -0.3709 -1.2825  0.5224
 4369SOL     OW14547   6.542   3.136  11.048  0.1243  0.6130  0.1592
 4369SOL    HW114548   6.602   3.127  10.974  0.2364  1.6266  0.1185
 4369SOL    HW214549   6.456   3.111  11.013  0.2373  0.7421 -0.2168
 4370SOL     OW14550   4.763   6.941   7.191  0.5834 -0.0089 -0.0592
 4370SOL    HW114551   4.724   7.007   7.133 -1.0245 -1.6485 -0.9553
 4370SOL    HW214552   4.721   6.957   7.276 -1.3308 -1.0564 -0.7492
 4371SOL     OW14553   3.186   5.812  12.234 -0.0755 -0.6094  0.1556
 4371SOL    HW114554   3.259   5.776  12.285  0.0561 -1.8546 -0.8611
 4371SOL    HW214555   3.177   5.901  12.266  2.2739 -0.2204 -0.0623
 4372SOL     OW14556   2.164   6.174   5.231 -0.4780  0.3327 -0.1504
 4372SOL    HW114557   2.110   6.249   5.208 -0.9184  0.3746  0.9758
 4372SOL    HW214558   2.184   6.132   5.147 -0.6031  1.4379 -0.7516
 4373SOL     OW14559   5.454   1.544   8.490  0.1383 -0.5435 -0.0300
 4373SOL    HW114560   5.408   1.621   8.521  1.3582  0.0301  0.4215
 4373SOL    HW214561   5.434   1.476   8.554  0.2292 -0.2005  0.3635
 4374SOL     OW14562   1.173   3.694   8.879  0.3166  0.0110 -0.4681
 4374SOL    HW114563   1.209   3.649   8.955  0.0765 -0.0442 -0.3846
 4374SOL    HW214564   1.129   3.771   8.915 -2.3070 -1.4874 -0.1850
 4375SOL     OW14565   3.034   2.739   8.915  0.3160  0.8257 -0.6383
 4375SOL    HW114566   2.951   2.781   8.895 -0.6087  0.2499  1.6219
 4375SOL    HW214567   3.027   2.652   8.876 -0.6116  0.4094  0.4004
 4376SOL     OW14568   3.695   0.504   7.125  0.0902 -0.1253  0.0278
 4376SOL    HW114569   3.683   0.564   7.199  1.2142  0.6391 -0.3759
 4376SOL    HW214570   3.671   0.419   7.160  0.4430  0.2422  1.2503
 4377SOL     OW14571   2.427   0.686   2.595 -0.1367  0.1606 -0.3149
 4377SOL    HW114572   2.500   0.698   2.535  0.4812  0.8047  0.5532
 4377SOL    HW214573   2.353   0.665   2.538  0.3622  1.0565 -1.3289
 4378SOL     OW14574   4.868   6.736   9.649  0.0495 -0.7522 -0.0278
 4378SOL    HW114575   4.840   6.791   9.722 -1.0365  0.5429 -1.3435
 4378SOL    HW214576   4.804   6.666   9.646  0.2375 -0.9476  0.3875
 4379SOL     OW14577   6.805   4.134   6.931 -0.4994 -0.5282 -0.2105
 4379SOL    HW114578   6.751   4.098   7.001  0.4860  0.1639  0.9399
 4379SOL    HW214579   6.794   4.229   6.939  1.8757 -0.2738  0.9415
 4380SOL     OW14580   1.686   1.803   2.520  0.0683  0.2747 -0.5176
 4380SOL    HW114581   1.717   1.722   2.479  0.4173  0.4815 -0.6657
 4380SOL    HW214582   1.652   1.775   2.605 -0.4267 -0.1221 -0.8412
 4381SOL     OW14583   0.516   1.012   2.543 -0.3981  0.5339  0.0439
 4381SOL    HW114584   0.597   1.062   2.530  0.4734 -1.3477 -2.8571
 4381SOL    HW214585   0.539   0.949   2.612 -0.5629  2.0786  1.5964
 4382SOL     OW14586   4.964   4.007   0.719 -0.7730  0.2414 -0.0214
 4382SOL    HW114587   4.970   4.080   0.779 -0.0527  0.0436  0.1558
 4382SOL    HW214588   4.973   4.046   0.632 -3.1517  0.7107 -0.1443
 4383SOL     OW14589   0.641   7.546   9.091 -0.2421 -0.6755  0.1436
 4383SOL    HW114590   0.601   7.469   9.052  1.0977 -0.9093 -0.8497
 4383SOL    HW214591   0.734   7.524   9.099  0.4825  1.3477 -1.5968
 4384SOL     OW14592   2.199   3.227  10.668  0.0840 -0.2876  0.9016
 4384SOL    HW114593   2.200   3.320  10.648  0.0170  0.0003  2.1629
 4384SOL    HW214594   2.285   3.195  10.639 -0.1734 -0.0090 -0.2234
 4385SOL     OW14595   3.527   0.851   5.263 -0.2353  0.5035  0.4800
 4385SOL    HW114596   3.477   0.933   5.270  0.1905  0.6417  2.9253
 4385SOL    HW214597   3.612   0.877   5.229 -0.0724  1.1354  1.3230
 4386SOL     OW14598   2.940   6.141   6.725 -0.7782 -0.0030  0.1974
 4386SOL    HW114599   2.862   6.165   6.675 -1.6567 -1.2239  0.9341
 4386SOL    HW214600   2.962   6.052   6.696 -0.8316 -0.4253  1.3915
 4387SOL     OW14601   1.680   7.649   4.081  0.1171 -0.1717  0.0559
 4387SOL    HW114602   1.743   7.719   4.099 -0.3141  0.0872  0.5898
 4387SOL    HW214603   1.728   7.587   4.027  0.5742  0.4293 -0.2356
 4388SOL     OW14604   0.096   2.337   9.890 -0.4099 -0.1995  0.7579
 4388SOL    HW114605   0.088   2.393   9.813 -1.2601 -0.6648  0.4997
 4388SOL    HW214606   0.151   2.388   9.950  0.8732 -0.1425 -0.4180
 4389SOL     OW14607   7.294   4.465   4.084  0.9262 -0.1132  0.1826
 4389SOL    HW114608   7.328   4.455   3.995  1.3801  1.7556  0.1164
 4389SOL    HW214609   7.371   4.461   4.140  0.6038 -1.7170  0.5892
 4390SOL     OW14610   6.688   7.409   9.222  0.1285  0.2968 -0.5313
 4390SOL    HW114611   6.738   7.456   9.289  1.8974  0.0220 -1.5998
 4390SOL    HW214612   6.677   7.474   9.152 -0.7512  0.2535 -0.4350
 4391SOL     OW14613   1.246   0.809   8.797  0.3680 -0.2316 -0.3118
 4391SOL    HW114614   1.227   0.715   8.792 -0.2749 -0.4111  3.1453
 4391SOL    HW214615   1.336   0.814   8.829  0.7380  0.3982 -1.3941
 4392SOL     OW14616   3.188   2.597   5.661 -0.0612 -0.0211 -0.1343
 4392SOL    HW114617   3.102   2.623   5.694  0.1661  1.0548 -0.3251
 4392SOL    HW214618   3.174   2.510   5.625 -1.2321  0.3714 -0.7093
 4393SOL     OW14619   2.742   1.929   8.022  0.4286 -0.3292 -0.0103
 4393SOL    HW114620   2.788   1.857   7.978 -1.2384 -0.6095 -1.3998
 4393SOL    HW214621   2.650   1.902   8.022 -0.0286  1.1242  0.8500
 4394SOL     OW14622   5.547   1.965   2.308  0.0954 -0.0307 -0.9841
 4394SOL    HW114623   5.496   1.884   2.307 -0.6272  0.3773  0.4452
 4394SOL    HW214624   5.616   1.951   2.243 -0.9662 -1.1598 -1.9178
 4395SOL     OW14625   3.593   2.059   7.118  0.0228  0.1396 -0.2659
 4395SOL    HW114626   3.685   2.081   7.131 -0.0570  1.1500 -1.3075
 4395SOL    HW214627   3.594   1.966   7.094  0.9371  0.4758 -1.6913
 4396SOL     OW14628   0.042   7.448   1.402 -0.2749  0.5207 -0.2400
 4396SOL    HW114629   0.114   7.435   1.340  0.5058  1.7422  0.3673
 4396SOL    HW214630  -0.009   7.367   1.396  1.1433 -0.3863 -0.6850
 4397SOL     OW14631   1.118   4.791   8.951 -0.6146 -0.2034  0.0575
 4397SOL    HW114632   1.029   4.827   8.950 -0.0688  1.2672  0.7974
 4397SOL    HW214633   1.167   4.846   8.890 -0.1229 -0.7187 -0.0164
 4398SOL     OW14634   5.507   4.985  12.338 -0.3606 -0.5504  0.2209
 4398SOL    HW114635   5.571   4.979  12.409  0.3443 -0.8508 -0.4262
 4398SOL    HW214636   5.477   5.075  12.341  0.9466 -0.0777 -0.1757
 4399SOL     OW14637   2.491   1.298   2.505  0.1249  0.3761  0.3101
 4399SOL    HW114638   2.511   1.381   2.548 -0.1644  0.0733  1.0465
 4399SOL    HW214639   2.401   1.279   2.531 -0.6913  1.0236 -1.8103
 4400SOL     OW14640   1.694   3.464   6.139 -0.0370  0.3249 -0.1049
 4400SOL    HW114641   1.775   3.513   6.150 -0.7646  1.8611 -1.1153
 4400SOL    HW214642   1.707   3.413   6.059 -0.4459  1.4876 -0.9477
 4401SOL     OW14643   1.568   2.916   3.080 -0.0377 -0.3607 -0.4377
 4401SOL    HW114644   1.630   2.892   3.148 -0.5575 -1.9887 -0.5058
 4401SOL    HW214645   1.618   2.908   2.998  0.4751  1.2220 -0.3153
 4402SOL     OW14646   7.404   0.928   7.471 -0.5861  0.0840 -0.2542
 4402SOL    HW114647   7.495   0.923   7.499 -0.1295 -0.0221 -1.6952
 4402SOL    HW214648   7.368   0.842   7.489 -0.0313 -0.2829 -0.8366
 4403SOL     OW14649   5.616   4.318   9.809 -0.0919 -0.9711  0.8419
 4403SOL    HW114650   5.690   4.377   9.825 -0.9285 -0.0048  1.2194
 4403SOL    HW214651   5.548   4.347   9.870 -1.5288 -0.5008 -0.9066
 4404SOL     OW14652   1.727   5.451   1.414  0.1947 -0.4909 -0.2210
 4404SOL    HW114653   1.812   5.449   1.371  0.4228 -0.3893  0.2195
 4404SOL    HW214654   1.666   5.476   1.345  0.2894 -2.0806 -0.9141
 4405SOL     OW14655   1.062   4.636   5.036  0.3188 -0.2385  0.6019
 4405SOL    HW114656   1.049   4.613   4.943  0.1045  0.7887  0.3617
 4405SOL    HW214657   1.102   4.558   5.074  0.3009 -0.7282 -0.3263
 4406SOL     OW14658   4.518   5.088  10.134 -0.2785  0.4896 -0.4144
 4406SOL    HW114659   4.591   5.141  10.166  0.0055  0.2503 -0.6612
 4406SOL    HW214660   4.512   5.107  10.041  1.9232 -2.2643 -1.2810
 4407SOL     OW14661   4.968   6.565   9.262  0.0455 -0.0176  0.2584
 4407SOL    HW114662   4.959   6.629   9.191 -2.6141  0.0154  0.5436
 4407SOL    HW214663   4.990   6.619   9.339 -1.3084  0.4984  0.3131
 4408SOL     OW14664   6.443   0.302   0.410 -0.4381  0.2786 -0.3722
 4408SOL    HW114665   6.529   0.338   0.392 -1.0068  0.8072 -2.2250
 4408SOL    HW214666   6.434   0.309   0.505  1.9130 -0.6966 -0.0184
 4409SOL     OW14667   5.822   3.124  11.863 -0.0810 -0.3004  0.4068
 4409SOL    HW114668   5.750   3.071  11.830  0.7791 -0.5009 -1.2423
 4409SOL    HW214669   5.901   3.073  11.842  0.7139  1.2629 -0.5140
 4410SOL     OW14670   5.841   2.083   1.939 -0.1346 -0.1044  0.5380
 4410SOL    HW114671   5.796   2.167   1.950  3.2981  2.0962 -0.8034
 4410SOL    HW214672   5.829   2.061   1.847 -0.8511 -1.0548  0.8392
 4411SOL     OW14673   5.918   0.066   4.548  0.0265  0.0166 -0.5181
 4411SOL    HW114674   5.926   0.031   4.637  0.5372  0.2449 -0.4677
 4411SOL    HW214675   5.915  -0.012   4.493 -3.5017 -0.2731 -0.1341
 4412SOL     OW14676   7.842   4.509   0.255  0.6076  0.0959  0.5573
 4412SOL    HW114677   7.804   4.552   0.178  0.0636 -1.7637 -0.2792
 4412SOL    HW214678   7.774   4.517   0.322 -0.4188 -1.2436 -0.2522
 4413SOL     OW14679   6.188   6.258  10.989 -0.1466 -0.1136  0.6023
 4413SOL    HW114680   6.197   6.353  10.997  1.4202 -0.1868  0.0615
 4413SOL    HW214681   6.187   6.226  11.079 -1.0013  0.4211  0.7952
 4414SOL     OW14682   2.617   2.609   5.276 -0.0016  0.1179  0.6901
 4414SOL    HW114683   2.708   2.626   5.298  0.7526 -1.0635 -1.2721
 4414SOL    HW214684   2.603   2.655   5.193 -0.5397 -1.3994 -0.1024
 4415SOL     OW14685   4.558   3.437  11.977 -0.0795  0.4359 -0.5830
 4415SOL    HW114686   4.605   3.354  11.975 -1.5096 -0.4156 -0.2488
 4415SOL    HW214687   4.556   3.466  11.886  1.3072  0.6436 -0.5701
 4416SOL     OW14688   2.536   7.879   1.399 -0.5422 -0.2694  0.4983
 4416SOL    HW114689   2.611   7.831   1.364 -1.0496 -0.6850 -0.0347
 4416SOL    HW214690   2.574   7.937   1.465  0.1798 -0.8548  0.6142
 4417SOL     OW14691   5.422   7.117   3.933 -0.4162  0.1116 -0.1095
 4417SOL    HW114692   5.497   7.075   3.892 -0.4713  0.7463 -0.8809
 4417SOL    HW214693   5.408   7.197   3.882 -1.3109  0.2483  0.3294
 4418SOL     OW14694   3.044   0.781  10.998 -0.2420  0.2288 -0.7368
 4418SOL    HW114695   3.128   0.823  10.980 -0.2320  0.3610 -0.3936
 4418SOL    HW214696   3.067   0.700  11.042 -0.3285  0.8400  0.4732
 4419SOL     OW14697   1.477   5.338   9.331  0.6817  0.0160 -0.6592
 4419SOL    HW114698   1.548   5.362   9.390  1.2071  0.4719 -1.4678
 4419SOL    HW214699   1.483   5.400   9.259  0.1720 -0.6603 -1.2975
 4420SOL     OW14700   7.869   1.891  10.906  0.5715  0.5297 -0.1273
 4420SOL    HW114701   7.964   1.900  10.909  0.4290  1.7762  1.4211
 4420SOL    HW214702   7.840   1.903  10.996 -0.9739 -1.1909 -0.3280
 4421SOL     OW14703   2.149   2.049   9.573 -0.8949 -0.2856 -0.2502
 4421SOL    HW114704   2.116   2.108   9.506 -1.6743  1.7841  1.8234
 4421SOL    HW214705   2.084   1.978   9.578 -1.8335  0.5491 -0.3753
 4422SOL     OW14706   7.006   3.763  11.841 -0.4243  0.0701  0.3224
 4422SOL    HW114707   6.939   3.800  11.783 -0.0329 -1.0680 -0.9167
 4422SOL    HW214708   7.062   3.837  11.862 -0.1500  0.4051 -1.3907
 4423SOL     OW14709   6.615   0.513  11.777 -0.5319 -0.1146 -0.5235
 4423SOL    HW114710   6.700   0.532  11.816 -0.4359 -1.7237  0.1042
 4423SOL    HW214711   6.631   0.517  11.682 -0.0550  0.7540 -0.4222
 4424SOL     OW14712   6.838   3.484   0.431 -0.3787  0.6530 -0.6542
 4424SOL    HW114713   6.888   3.414   0.389 -0.7632 -1.3973  2.0709
 4424SOL    HW214714   6.886   3.564   0.409  2.6367 -0.9276 -0.2967
 4425SOL     OW14715   5.081   6.233   8.288 -0.5053 -0.1508 -0.8897
 4425SOL    HW114716   5.110   6.153   8.246  3.7961  0.3802  0.6206
 4425SOL    HW214717   5.038   6.204   8.369  0.7629 -0.9674 -0.4924
 4426SOL     OW14718   2.536   5.172   3.525 -0.2006  0.4280 -0.0588
 4426SOL    HW114719   2.579   5.256   3.545  0.2338  0.0392  0.6933
 4426SOL    HW214720   2.511   5.137   3.611 -2.8989  1.0572 -0.5052
 4427SOL     OW14721   7.437   0.275   7.036 -0.4245 -0.3523 -0.1222
 4427SOL    HW114722   7.408   0.224   7.112  0.2996 -1.4365 -0.5474
 4427SOL    HW214723   7.395   0.360   7.046 -1.0595 -0.7874  1.0140
 4428SOL     OW14724   5.400   0.088   5.597 -0.2913 -0.4078  0.1934
 4428SOL    HW114725   5.406   0.180   5.571  2.2619 -0.4861  0.2747
 4428SOL    HW214726   5.489   0.055   5.588 -0.8625 -2.4989  1.6180
 4429SOL     OW14727   0.163   1.232   7.762  0.2828 -0.1291  0.3346
 4429SOL    HW114728   0.130   1.147   7.731 -0.7678  0.6357 -0.7753
 4429SOL    HW214729   0.256   1.217   7.779  0.8080 -0.8425 -2.6032
 4430SOL     OW14730   6.677   4.568   9.892 -0.1016 -0.2318 -0.2039
 4430SOL    HW114731   6.757   4.516   9.903 -1.2231 -1.4912  2.9392
 4430SOL    HW214732   6.609   4.503   9.874 -0.5145  0.8391 -3.0215
 4431SOL     OW14733   3.525   0.320   5.254  0.4702  0.1878  0.3744
 4431SOL    HW114734   3.522   0.325   5.350 -1.3161 -0.2125  0.3792
 4431SOL    HW214735   3.450   0.373   5.226  0.2843 -0.6436 -0.7519
 4432SOL     OW14736   6.583   0.171  11.564 -0.1964  0.5439  0.4993
 4432SOL    HW114737   6.510   0.146  11.621  0.3914 -0.9229  0.6403
 4432SOL    HW214738   6.649   0.206  11.624 -0.4977  1.2153  0.4478
 4433SOL     OW14739   4.539   6.377  10.715 -0.2170  0.3085  0.4103
 4433SOL    HW114740   4.626   6.339  10.728  0.8100  1.9683 -1.0774
 4433SOL    HW214741   4.508   6.338  10.633 -0.9739 -0.4024  1.0189
 4434SOL     OW14742   1.949   7.032   6.890  0.4908 -0.1138  0.0340
 4434SOL    HW114743   1.880   7.097   6.882 -0.8969 -1.5788 -0.4087
 4434SOL    HW214744   1.987   7.048   6.977 -0.0801  1.0027  0.0950
 4435SOL     OW14745   2.777   1.302   1.451 -0.1034  0.4768  0.3952
 4435SOL    HW114746   2.826   1.227   1.416 -0.1856  0.0544  1.1720
 4435SOL    HW214747   2.687   1.271   1.456 -0.9010  1.8186 -2.7569
 4436SOL     OW14748   4.505   6.962   0.527 -0.2092 -0.2979  0.2833
 4436SOL    HW114749   4.578   6.924   0.478 -0.2469 -0.3724  0.2854
 4436SOL    HW214750   4.528   7.054   0.536 -0.6450 -0.0745 -0.6999
 4437SOL     OW14751   2.556   6.495  11.524 -0.0500  0.3816 -0.8280
 4437SOL    HW114752   2.554   6.413  11.476 -0.7832 -1.1989  1.6856
 4437SOL    HW214753   2.469   6.534  11.509 -0.1319  0.0974 -1.0941
 4438SOL     OW14754   3.661   0.666   7.332  0.7375 -0.0008  0.1973
 4438SOL    HW114755   3.609   0.736   7.293  0.7615 -0.1491 -0.0973
 4438SOL    HW214756   3.614   0.644   7.413  0.1435 -0.3896 -0.2510
 4439SOL     OW14757   2.488   0.391   0.855  0.1073 -0.4919  0.7479
 4439SOL    HW114758   2.577   0.371   0.826  0.8520  3.4380 -0.1626
 4439SOL    HW214759   2.432   0.366   0.780  0.4880 -2.1195  0.9741
 4440SOL     OW14760   0.021   6.063   2.772 -0.8085 -0.5218  0.3507
 4440SOL    HW114761  -0.048   5.998   2.788 -1.6468  0.4873  0.9739
 4440SOL    HW214762   0.092   6.038   2.832 -0.9588 -1.0955  0.2966
 4441SOL     OW14763   4.034   7.146   1.935 -0.3978 -0.0754 -0.2729
 4441SOL    HW114764   4.039   7.201   2.013  0.2249  0.5370 -0.7377
 4441SOL    HW214765   4.124   7.140   1.904 -0.6116 -0.4861 -0.8333
 4442SOL     OW14766   6.530   3.182  10.267 -0.5323 -0.3382  0.1780
 4442SOL    HW114767   6.564   3.176  10.357 -2.1375 -0.5790  0.8100
 4442SOL    HW214768   6.542   3.094  10.231 -0.8700 -0.5354  0.5407
 4443SOL     OW14769   7.575   7.609   8.658 -0.3216  0.3730 -0.0952
 4443SOL    HW114770   7.661   7.625   8.699  0.3046 -0.7937 -0.8732
 4443SOL    HW214771   7.591   7.618   8.564 -0.9492 -0.2713 -0.2740
 4444SOL     OW14772   2.438   3.589   4.818  0.1319  0.2711 -0.2822
 4444SOL    HW114773   2.500   3.571   4.747  1.3771 -3.9830  1.5160
 4444SOL    HW214774   2.485   3.648   4.877  2.1303 -1.8498  0.4007
 4445SOL     OW14775   0.884   3.044  12.285  0.2870  0.3221  0.6395
 4445SOL    HW114776   0.909   3.041  12.378  0.2400 -2.9962  0.6691
 4445SOL    HW214777   0.797   3.084  12.285 -0.1018 -0.4376  2.1831
 4446SOL     OW14778   6.966   7.646   6.543 -0.0038  0.5514 -0.0084
 4446SOL    HW114779   6.872   7.645   6.528 -0.1843  0.5056  1.0053
 4446SOL    HW214780   6.980   7.722   6.600  0.2586 -0.5990  1.5378
 4447SOL     OW14781   1.683   2.743   0.161  0.1800  0.4119 -0.2054
 4447SOL    HW114782   1.656   2.651   0.155 -0.0928  0.3648  1.2420
 4447SOL    HW214783   1.766   2.740   0.209  0.5337  0.8785 -0.7805
 4448SOL     OW14784   7.251   6.934   3.306  0.5459 -0.1313  0.6982
 4448SOL    HW114785   7.224   6.881   3.381  0.5473 -2.0767 -0.5963
 4448SOL    HW214786   7.178   6.994   3.292 -0.0969 -0.7290  1.3844
 4449SOL     OW14787   6.297   5.517  10.427 -0.2794 -0.1476  0.4699
 4449SOL    HW114788   6.208   5.518  10.460 -0.6870 -0.2923 -0.6047
 4449SOL    HW214789   6.312   5.606  10.396 -1.4286 -0.9634 -2.8514
 4450SOL     OW14790   5.029   6.034  10.177 -0.1934 -0.2124  0.1910
 4450SOL    HW114791   5.122   6.024  10.156 -0.1033  1.8967 -0.6615
 4450SOL    HW214792   5.005   6.120  10.140 -2.7198 -1.1207 -0.5013
 4451SOL     OW14793   2.639   7.311  10.959 -0.0929 -0.2959  0.1366
 4451SOL    HW114794   2.576   7.297  10.887  1.7977  3.0248 -2.4745
 4451SOL    HW214795   2.698   7.236  10.953 -0.8017 -0.8157 -0.8047
 4452SOL     OW14796   2.219   7.747  10.102  0.0483 -0.4633  0.1437
 4452SOL    HW114797   2.288   7.715  10.045 -0.8654  1.3213 -2.0953
 4452SOL    HW214798   2.251   7.730  10.191  2.6702 -1.0019 -0.8338
 4453SOL     OW14799   5.695   0.570   8.963 -0.3691  0.0299 -0.8922
 4453SOL    HW114800   5.768   0.525   8.919  0.1951  1.2796 -1.2791
 4453SOL    HW214801   5.619   0.550   8.909 -0.0467 -0.0926 -1.3103
 4454SOL     OW14802   0.618   5.152   3.133 -0.3340 -0.3041  0.0224
 4454SOL    HW114803   0.672   5.120   3.061 -0.2698  1.7143 -0.9129
 4454SOL    HW214804   0.661   5.234   3.160 -1.9856  0.5020  0.3468
 4455SOL     OW14805   0.740   0.853   6.232 -0.0679 -0.0382  0.6266
 4455SOL    HW114806   0.673   0.902   6.280  0.0085 -0.4390  1.1601
 4455SOL    HW214807   0.810   0.916   6.217 -0.4639  0.3210  0.2762
 4456SOL     OW14808   7.599   0.397  11.592  0.0211  0.1624 -0.0696
 4456SOL    HW114809   7.611   0.462  11.522 -0.0638  0.5798  0.3033
 4456SOL    HW214810   7.504   0.389  11.600  0.0169 -0.7706 -0.8140
 4457SOL     OW14811   4.543   2.123   7.205  0.3493  0.0817  0.0900
 4457SOL    HW114812   4.591   2.206   7.208 -2.4225  1.7684  1.1728
 4457SOL    HW214813   4.505   2.121   7.117  0.5486 -0.1457  0.0076
 4458SOL     OW14814   6.584   7.290   5.639  0.2450 -0.0866 -0.5371
 4458SOL    HW114815   6.645   7.307   5.567  0.9997  0.7106  0.2703
 4458SOL    HW214816   6.629   7.227   5.695 -0.3833 -0.7849 -0.8053
 4459SOL     OW14817   5.944   6.822   9.973  0.2626 -0.3546 -0.0453
 4459SOL    HW114818   5.934   6.917   9.978 -1.7510 -0.5261  0.4109
 4459SOL    HW214819   5.991   6.798  10.053 -0.1477  0.1939  0.3735
 4460SOL     OW14820   5.447   0.936   4.332 -0.0415  0.2124 -0.0447
 4460SOL    HW114821   5.368   0.961   4.285 -0.1959 -1.0487 -0.4996
 4460SOL    HW214822   5.428   0.847   4.364  0.8580  0.2427  0.5951
 4461SOL     OW14823   2.183   4.372   6.663 -0.7189 -0.2840 -0.2340
 4461SOL    HW114824   2.108   4.314   6.677 -0.2803 -0.4285  1.9235
 4461SOL    HW214825   2.144   4.455   6.637 -1.6409 -0.4338  0.5930
 4462SOL     OW14826   3.656   7.147   4.571 -0.4305 -0.2205 -0.1377
 4462SOL    HW114827   3.718   7.088   4.614 -1.9373 -0.8682  1.2524
 4462SOL    HW214828   3.595   7.089   4.525 -1.3881  0.2622  0.4778
 4463SOL     OW14829   5.908   5.853   4.047 -0.2369  0.1216 -0.3067
 4463SOL    HW114830   5.847   5.859   4.121  1.2617 -2.8349  1.3943
 4463SOL    HW214831   5.858   5.810   3.978 -0.5438 -0.9431  0.5511
 4464SOL     OW14832   0.084   0.272   4.093 -0.3078  0.1009 -0.3209
 4464SOL    HW114833   0.016   0.241   4.034 -1.5293 -0.2412  1.2073
 4464SOL    HW214834   0.134   0.194   4.116 -1.5816 -0.2983  1.2504
 4465SOL     OW14835   3.742   6.565   8.094  0.7982  0.5945  0.0901
 4465SOL    HW114836   3.684   6.604   8.029 -1.8660  0.3435  2.1505
 4465SOL    HW214837   3.698   6.484   8.121  3.1693 -0.7184  0.3239
 4466SOL     OW14838   0.545   4.625   4.217  0.9375 -0.7327 -0.0173
 4466SOL    HW114839   0.455   4.593   4.208  0.7677 -0.0018 -1.0786
 4466SOL    HW214840   0.537   4.715   4.246  1.2948 -0.4490 -0.7614
 4467SOL     OW14841   4.538   7.667  10.615 -0.2781  0.1278  0.4563
 4467SOL    HW114842   4.450   7.692  10.588  0.7708  0.6850 -2.9346
 4467SOL    HW214843   4.571   7.742  10.664 -1.6683 -0.1254  1.8477
 4468SOL     OW14844   5.388   4.905   2.421 -1.0181 -0.2171  0.2476
 4468SOL    HW114845   5.483   4.911   2.413 -1.0901  1.9101  0.2837
 4468SOL    HW214846   5.372   4.824   2.469  0.7854 -0.4714  0.4765
 4469SOL     OW14847   2.695   5.749   3.667  0.2464  0.1750 -0.2399
 4469SOL    HW114848   2.699   5.662   3.628 -1.0923  0.4065 -0.9620
 4469SOL    HW214849   2.615   5.748   3.719  0.5573  0.7812  0.2630
 4470SOL     OW14850   2.522   5.094   0.340 -0.0310  0.9317  0.8806
 4470SOL    HW114851   2.604   5.113   0.293  0.8837  2.9082  3.0754
 4470SOL    HW214852   2.458   5.152   0.300 -0.5417 -0.8183 -1.0373
 4471SOL     OW14853   0.857   0.909   3.631 -1.0924  0.1900  0.5763
 4471SOL    HW114854   0.901   0.994   3.630 -1.0035  0.1751 -1.1206
 4471SOL    HW214855   0.912   0.854   3.575 -2.4962 -0.2152 -0.4735
 4472SOL     OW14856   0.589   1.416   0.792  0.4386 -0.1688 -0.1775
 4472SOL    HW114857   0.518   1.370   0.837  0.6416  0.6640  1.0693
 4472SOL    HW214858   0.633   1.349   0.741 -0.8860 -0.8166 -0.5128
 4473SOL     OW14859   0.668   6.094   9.882  0.4819  0.7946 -0.2011
 4473SOL    HW114860   0.665   6.164   9.947  2.5806  1.2224 -0.4837
 4473SOL    HW214861   0.597   6.114   9.821  0.2658  1.9694  0.4137
 4474SOL     OW14862   0.795   2.524   1.114  0.1104 -0.1234  0.2714
 4474SOL    HW114863   0.805   2.619   1.112 -0.8449 -0.0333 -1.5100
 4474SOL    HW214864   0.700   2.510   1.120  0.1479 -0.9431 -0.7545
 4475SOL     OW14865   5.812   5.802  10.377  0.2927  0.1402 -0.4432
 4475SOL    HW114866   5.789   5.873  10.437 -0.1122 -1.1564  1.0061
 4475SOL    HW214867   5.734   5.791  10.322  0.0995  0.3791 -0.2197
 4476SOL     OW14868   3.604   5.789   3.947 -0.1025 -0.2244 -0.1560
 4476SOL    HW114869   3.684   5.827   3.909  0.2770 -0.4916  0.3684
 4476SOL    HW214870   3.552   5.762   3.871  1.2584 -2.0296 -0.4896
 4477SOL     OW14871   3.209   1.827   1.622 -0.0211 -0.2223 -0.1359
 4477SOL    HW114872   3.172   1.896   1.677 -2.2900 -1.8433  0.5393
 4477SOL    HW214873   3.197   1.859   1.533 -4.0252 -0.9049 -0.0263
 4478SOL     OW14874   1.903   4.292   1.868 -0.3421  0.2123  0.0970
 4478SOL    HW114875   1.823   4.332   1.903 -2.5735 -1.1590 -2.9076
 4478SOL    HW214876   1.890   4.294   1.773  3.2829 -0.0783 -0.5335
 4479SOL     OW14877   4.425   7.665   9.145  0.6455 -0.1147  0.1481
 4479SOL    HW114878   4.480   7.737   9.176  3.4219 -1.8932 -0.3154
 4479SOL    HW214879   4.426   7.601   9.215  0.8134 -1.0273 -0.6619
 4480SOL     OW14880   0.003   4.340   4.953 -0.0215 -0.1932  0.5526
 4480SOL    HW114881   0.020   4.411   4.891  0.2799 -1.4721 -0.8979
 4480SOL    HW214882   0.011   4.381   5.039 -0.0593  1.5626 -0.2355
 4481SOL     OW14883   7.520   4.426   5.156  0.2637  0.0372  1.0575
 4481SOL    HW114884   7.513   4.420   5.061  1.4499 -0.7209  0.9944
 4481SOL    HW214885   7.445   4.377   5.189  2.0143 -3.4150  0.4642
 4482SOL     OW14886   3.949   5.071  10.372  0.4303  0.2456 -0.6075
 4482SOL    HW114887   3.918   5.137  10.309 -0.6566  0.0101 -0.3269
 4482SOL    HW214888   4.039   5.053  10.344  0.7396  1.7859 -0.7425
 4483SOL     OW14889   0.745   6.549   1.611  0.2771 -0.1041 -0.0172
 4483SOL    HW114890   0.829   6.554   1.566  0.6782 -1.8035  0.4495
 4483SOL    HW214891   0.763   6.582   1.699  0.4739 -0.4703  0.0836
 4484SOL     OW14892   0.753   4.560   4.429 -0.0711  0.0714  0.3661
 4484SOL    HW114893   0.698   4.524   4.499  1.8307 -0.0772  1.8599
 4484SOL    HW214894   0.692   4.581   4.359 -2.0509  0.0823  2.0085
 4485SOL     OW14895   1.684   3.048   9.417  0.0284  0.1398 -0.4313
 4485SOL    HW114896   1.617   3.102   9.375  0.5525  0.1473 -1.2744
 4485SOL    HW214897   1.696   3.088   9.503  0.4320  1.4181 -1.0522
 4486SOL     OW14898   3.273   5.067   8.990  0.2583  0.3001 -0.5880
 4486SOL    HW114899   3.301   4.976   8.980  0.2921  0.3888 -1.3405
 4486SOL    HW214900   3.186   5.060   9.029  1.1750  0.0174  1.5830
 4487SOL     OW14901   3.988   4.174   1.027  0.1492  0.3352  0.4894
 4487SOL    HW114902   4.082   4.192   1.029  0.7118 -1.8077 -1.7005
 4487SOL    HW214903   3.977   4.111   0.956 -2.5649 -1.7512  2.5211
 4488SOL     OW14904   5.113   6.980  10.928 -0.0133  0.5401  0.6793
 4488SOL    HW114905   5.154   6.894  10.936 -1.2583  0.0955  2.9551
 4488SOL    HW214906   5.020   6.961  10.913 -0.2217  1.5034  0.7043
 4489SOL     OW14907   3.804   0.479   4.726 -1.0140 -0.1307 -1.0109
 4489SOL    HW114908   3.792   0.574   4.727  3.6133  0.6788  0.5316
 4489SOL    HW214909   3.827   0.459   4.636 -0.1564  0.5635 -0.9589
 4490SOL     OW14910   3.262   0.050  11.820 -0.0565  0.1937 -0.1108
 4490SOL    HW114911   3.306   0.093  11.893  0.3604 -0.8405  0.2503
 4490SOL    HW214912   3.291  -0.041  11.823  1.2378  0.4328 -2.5083
 4491SOL     OW14913   6.178   2.902   4.733  0.3728  0.3121  0.5616
 4491SOL    HW114914   6.228   2.896   4.814  0.4626  1.2133  0.5763
 4491SOL    HW214915   6.129   2.819   4.729  0.5872  0.1389  1.3798
 4492SOL     OW14916   5.890   3.917   8.587 -0.0591  0.1884  0.0272
 4492SOL    HW114917   5.920   3.937   8.676 -0.2092 -0.4942  0.2381
 4492SOL    HW214918   5.875   4.002   8.547 -0.5241  0.5060  0.8484
 4493SOL     OW14919   4.724   2.883   4.058  0.2270 -0.4014  0.0952
 4493SOL    HW114920   4.819   2.878   4.043  0.1921  0.3127 -0.4377
 4493SOL    HW214921   4.709   2.974   4.084 -0.6004  0.1410 -2.0654
 4494SOL     OW14922   6.948   2.924   6.560  0.1762  0.6173  0.4192
 4494SOL    HW114923   6.884   2.875   6.509 -0.4478  0.7336  1.0631
 4494SOL    HW214924   6.964   2.870   6.638  0.8132  0.6230  0.3011
 4495SOL     OW14925   1.397   0.566   9.090  0.5267 -0.0801 -0.2798
 4495SOL    HW114926   1.461   0.497   9.108 -0.2292 -0.4209  1.2848
 4495SOL    HW214927   1.312   0.526   9.112 -0.2347  0.4026 -2.1962
 4496SOL     OW14928   7.108   0.392   2.765 -0.1387  0.3558 -0.0680
 4496SOL    HW114929   7.074   0.480   2.750 -0.0623  0.3379 -0.3517
 4496SOL    HW214930   7.140   0.394   2.856 -0.4709  0.5075  0.0471
 4497SOL     OW14931   2.651   1.481   9.291  0.4783  0.7707 -0.3925
 4497SOL    HW114932   2.611   1.548   9.346  0.8838 -0.4228  1.4779
 4497SOL    HW214933   2.582   1.415   9.281  0.2079  1.2613 -1.8754
 4498SOL     OW14934   4.008   1.984   3.040 -0.1061  0.2635 -0.2512
 4498SOL    HW114935   4.086   2.038   3.056  0.8300 -0.8381 -0.9908
 4498SOL    HW214936   3.996   1.936   3.122  1.5091 -1.4134 -0.9441
 4499SOL     OW14937   5.254   0.925   5.679 -0.1722  0.1952  0.5482
 4499SOL    HW114938   5.189   0.881   5.624 -1.9139  1.7186  1.2927
 4499SOL    HW214939   5.300   0.984   5.619 -0.7122  0.4142  0.3408
 4500SOL     OW14940   7.032   3.481   5.939 -0.1578  0.0691 -0.5324
 4500SOL    HW114941   6.999   3.398   5.974 -0.5489  0.5387  0.2365
 4500SOL    HW214942   6.958   3.517   5.890 -0.3881  0.5233  0.1364
 4501SOL     OW14943   2.577   4.160  11.596 -0.1387 -0.3634 -0.5172
 4501SOL    HW114944   2.585   4.240  11.647 -0.9909  1.6052 -3.2909
 4501SOL    HW214945   2.667   4.140  11.570  0.2147 -1.0021  1.0556
 4502SOL     OW14946   2.894   5.030   8.381  0.5821  0.1256 -0.1000
 4502SOL    HW114947   2.969   5.046   8.438  1.8118 -0.0260 -1.6254
 4502SOL    HW214948   2.833   5.102   8.401  1.8496  1.2126  0.0096
 4503SOL     OW14949   0.258   1.166   2.225  0.4603  0.2927  0.0321
 4503SOL    HW114950   0.199   1.160   2.150 -0.6658 -0.1517  0.9128
 4503SOL    HW214951   0.336   1.118   2.199  0.6878  1.3561 -1.3746
 4504SOL     OW14952   4.272   1.084   1.502 -0.8282 -0.2345 -0.0975
 4504SOL    HW114953   4.211   1.124   1.439 -1.3586  0.5783  0.8910
 4504SOL    HW214954   4.227   1.005   1.531 -0.5780 -0.6163 -0.7410
 4505SOL     OW14955   6.696   6.971  11.539 -0.0390 -0.1332  0.3608
 4505SOL    HW114956   6.737   7.039  11.487 -0.6710  0.5960  0.7956
 4505SOL    HW214957   6.730   6.983  11.628  0.4369 -0.8805  0.2935
 4506SOL     OW14958   5.883   4.106  10.402 -0.0136 -0.1009 -0.1538
 4506SOL    HW114959   5.956   4.118  10.464 -0.4618  1.8564  0.0671
 4506SOL    HW214960   5.915   4.143  10.320 -0.7072  0.6787 -0.0827
 4507SOL     OW14961   7.331   7.669  12.295  0.3199  0.0152  0.1386
 4507SOL    HW114962   7.343   7.749  12.244  0.3096 -0.2746 -0.3275
 4507SOL    HW214963   7.236   7.661  12.305  0.3763  0.9805  1.6828
 4508SOL     OW14964   0.731   3.611  10.588 -0.1201  0.2984  0.0690
 4508SOL    HW114965   0.776   3.691  10.614 -0.3245  0.6807 -0.7336
 4508SOL    HW214966   0.660   3.602  10.652  1.0620 -0.3251  1.3600
 4509SOL     OW14967   3.582   3.215   4.653 -0.4390  0.3712 -0.5991
 4509SOL    HW114968   3.627   3.296   4.629  0.9585 -0.3722 -0.5585
 4509SOL    HW214969   3.588   3.212   4.749  0.4496 -0.2925 -0.6673
 4510SOL     OW14970   7.854   5.280   0.483  0.4416 -0.3714 -0.0082
 4510SOL    HW114971   7.791   5.337   0.439  1.1700  0.8481  0.4623
 4510SOL    HW214972   7.935   5.293   0.434  0.6097 -1.0272  0.0979
 4511SOL     OW14973   4.172   6.539   9.631 -0.5134  0.2349  0.1184
 4511SOL    HW114974   4.080   6.543   9.607 -0.2136  0.5860 -1.0577
 4511SOL    HW214975   4.218   6.583   9.559  0.5379  0.4803  0.8958
 4512SOL     OW14976   2.535   4.669   1.759 -0.0792 -0.6408  0.2265
 4512SOL    HW114977   2.456   4.619   1.736  0.4298 -0.8104 -1.2049
 4512SOL    HW214978   2.502   4.741   1.812 -1.2829 -0.4072 -0.7868
 4513SOL     OW14979   3.321   3.616  10.642  0.2585 -0.2090 -0.2786
 4513SOL    HW114980   3.365   3.536  10.673 -0.6473 -0.1787  1.2141
 4513SOL    HW214981   3.333   3.615  10.547  0.9957 -1.6764 -0.2065
 4514SOL     OW14982   0.039   4.383  10.753 -0.0841 -0.6716 -0.2434
 4514SOL    HW114983   0.063   4.472  10.727  0.2652 -0.7589 -0.2169
 4514SOL    HW214984   0.069   4.376  10.844 -2.5859  0.1344  0.7407
 4515SOL     OW14985   3.691   0.014   3.371 -0.0207 -0.4901 -0.2026
 4515SOL    HW114986   3.754   0.062   3.425 -0.3927 -0.4074  0.1620
 4515SOL    HW214987   3.667  -0.062   3.424 -0.0773 -0.6268 -0.4235
 4516SOL     OW14988   4.308   0.116  11.821  0.0823 -0.6731  0.4675
 4516SOL    HW114989   4.238   0.157  11.872 -0.5659 -1.4138  0.1922
 4516SOL    HW214990   4.263   0.061  11.757  0.8819 -0.0963 -0.6382
 4517SOL     OW14991   4.866   1.490   4.819  0.1636  0.3200  0.1793
 4517SOL    HW114992   4.779   1.468   4.853  0.1727  0.5104  0.3271
 4517SOL    HW214993   4.854   1.573   4.773  0.2902  0.4017  0.2933
 4518SOL     OW14994   0.116   1.114   3.145 -0.4273 -0.0808 -0.7321
 4518SOL    HW114995   0.176   1.126   3.218  1.0055  0.3278 -1.9323
 4518SOL    HW214996   0.033   1.090   3.186  0.3112  0.2096  1.0191
 4519SOL     OW14997   2.686   5.151   8.212  0.0454  0.6824 -0.1969
 4519SOL    HW114998   2.768   5.136   8.164  0.9467  1.2895  1.1036
 4519SOL    HW214999   2.703   5.229   8.265 -1.3563  0.7678  0.1653
 4520SOL     OW15000   1.774   6.748  12.190  0.4332 -0.5708 -0.3658
 4520SOL    HW115001   1.700   6.805  12.209  1.9191  2.1786 -2.2028
 4520SOL    HW215002   1.789   6.700  12.271 -2.4199 -0.2239  0.4922
 4521SOL     OW15003   0.527   3.885   5.144 -0.0686  0.6160 -0.7310
 4521SOL    HW115004   0.462   3.955   5.152 -1.1295 -0.4080 -0.1066
 4521SOL    HW215005   0.606   3.920   5.186 -0.6176  1.3895 -0.3339
 4522SOL     OW15006   7.758   2.491   8.436 -0.2935 -0.1995  0.0148
 4522SOL    HW115007   7.838   2.479   8.486 -0.0677 -0.8283 -0.4872
 4522SOL    HW215008   7.716   2.567   8.476  1.2019  0.9905 -0.5570
 4523SOL     OW15009   1.880   2.740   5.638  0.0283  0.1703  0.2252
 4523SOL    HW115010   1.952   2.777   5.587  0.8357  1.5222  2.2643
 4523SOL    HW215011   1.840   2.677   5.578  3.1216 -0.9493 -0.8967
 4524SOL     OW15012   4.205   2.510   1.750  0.6050 -0.7437 -0.1344
 4524SOL    HW115013   4.294   2.502   1.785  1.0164  0.3269 -0.8735
 4524SOL    HW215014   4.217   2.537   1.660 -0.4795  0.8842  0.1683
 4525SOL     OW15015   4.815   7.777   8.984  0.2734  0.3531 -0.2689
 4525SOL    HW115016   4.756   7.784   8.909 -0.5418  1.0450  0.4140
 4525SOL    HW215017   4.819   7.865   9.020 -1.4236 -0.3823  2.0137
 4526SOL     OW15018   0.282   2.497   0.333 -0.0996  0.0619 -0.1930
 4526SOL    HW115019   0.230   2.472   0.257 -0.6440  0.4584  0.0339
 4526SOL    HW215020   0.308   2.414   0.373 -2.0775 -0.2138  0.6866
 4527SOL     OW15021   4.028   3.291   0.358 -0.3263  0.1154 -0.0202
 4527SOL    HW115022   4.032   3.205   0.401  2.1721  0.6982  1.0481
 4527SOL    HW215023   4.114   3.330   0.372 -1.4722  2.9616 -0.1984
 4528SOL     OW15024   7.290   3.623   9.151 -0.0923  0.1918  0.1548
 4528SOL    HW115025   7.299   3.662   9.238  0.0264  1.4389 -0.3943
 4528SOL    HW215026   7.315   3.693   9.091 -1.6057 -0.1641 -0.9469
 4529SOL     OW15027   0.586   5.597   3.150 -0.3184  0.5699  0.2294
 4529SOL    HW115028   0.576   5.628   3.060  0.2938  0.6950  0.1977
 4529SOL    HW215029   0.497   5.582   3.180 -0.6202  1.9462  0.0944
 4530SOL     OW15030   4.780   1.662   2.542  0.1102  0.3154  0.2313
 4530SOL    HW115031   4.793   1.685   2.634  0.1114  0.0164  0.3086
 4530SOL    HW215032   4.780   1.566   2.542  0.2558  0.3159 -0.1019
 4531SOL     OW15033   7.444   1.977  11.277 -0.0274 -0.2830 -0.0601
 4531SOL    HW115034   7.456   2.049  11.339  2.0352 -0.7143  0.0947
 4531SOL    HW215035   7.389   1.914  11.325 -0.1266  0.2636  0.5710
 4532SOL     OW15036   5.959   6.278   8.459 -0.4491  0.0483 -0.0623
 4532SOL    HW115037   5.980   6.341   8.390  1.0509  0.4347  0.6996
 4532SOL    HW215038   5.863   6.279   8.465 -0.6266 -0.0079 -2.1189
 4533SOL     OW15039   3.024   7.794   7.873 -0.5792 -0.1946 -0.1684
 4533SOL    HW115040   2.945   7.848   7.871 -1.1433 -0.9924  0.0501
 4533SOL    HW215041   2.998   7.715   7.920 -0.8565 -2.2711 -3.4232
 4534SOL     OW15042   3.243   7.519   8.706  0.1505 -0.7097 -0.0888
 4534SOL    HW115043   3.221   7.448   8.646  0.1041 -1.6869  1.0447
 4534SOL    HW215044   3.302   7.576   8.656  0.0283 -1.4310 -1.0836
 4535SOL     OW15045   6.913   7.276   4.810  0.0457 -0.1406  0.1975
 4535SOL    HW115046   7.008   7.260   4.813  0.1692 -0.0624 -1.8707
 4535SOL    HW215047   6.904   7.365   4.846  0.8122  0.0172  0.0317
 4536SOL     OW15048   3.325   0.318   3.636 -0.2994  0.5298 -0.3560
 4536SOL    HW115049   3.295   0.370   3.562 -1.1347  0.2062 -0.2499
 4536SOL    HW215050   3.412   0.353   3.656  0.7454 -0.5860 -2.6277
 4537SOL     OW15051   4.019   1.414  10.718  0.1733  0.1460 -0.4589
 4537SOL    HW115052   3.985   1.342  10.771  0.9201 -1.6389 -2.2837
 4537SOL    HW215053   4.112   1.420  10.742 -0.2178  1.6588  0.8659
 4538SOL     OW15054   0.586   5.948   2.247 -0.1074 -0.3633 -0.3816
 4538SOL    HW115055   0.620   5.858   2.243 -0.1375 -0.3957 -4.4092
 4538SOL    HW215056   0.662   6.001   2.271  0.1230 -1.3548  1.1758
 4539SOL     OW15057   3.721   0.269   6.898 -0.1321 -0.0180 -0.0382
 4539SOL    HW115058   3.773   0.322   6.958 -0.1582 -1.0153  0.9095
 4539SOL    HW215059   3.670   0.211   6.955 -0.8546 -0.3646 -1.0031
 4540SOL     OW15060   0.172   0.614   1.009  0.3920  0.0330  0.1665
 4540SOL    HW115061   0.191   0.666   1.086  0.8761  0.9247 -0.5339
 4540SOL    HW215062   0.257   0.581   0.980  0.3282  0.4111 -0.4733
 4541SOL     OW15063   4.883   6.201   2.773 -0.0908 -0.0820 -0.3330
 4541SOL    HW115064   4.976   6.216   2.788 -0.3485 -0.0359  1.5296
 4541SOL    HW215065   4.850   6.284   2.738  0.3620  0.2785  0.0827
 4542SOL     OW15066   6.824   5.180   7.901  0.2463  0.0331 -0.0221
 4542SOL    HW115067   6.797   5.101   7.949  0.6725 -0.2030 -0.1645
 4542SOL    HW215068   6.904   5.208   7.944 -0.2140  0.7204  0.3861
 4543SOL     OW15069   3.530   5.685   1.974 -0.0914 -0.2993 -0.1873
 4543SOL    HW115070   3.483   5.634   2.040  0.2726 -0.5563 -0.1277
 4543SOL    HW215071   3.552   5.622   1.905 -0.6133  0.0003 -0.6355
 4544SOL     OW15072   2.659   6.711  12.161  0.4682 -0.2491  0.1022
 4544SOL    HW115073   2.649   6.800  12.193 -1.2864 -0.2983 -0.2222
 4544SOL    HW215074   2.753   6.701  12.145  0.7815  1.2703  0.8602
 4545SOL     OW15075   3.459   3.678   0.264  0.6531 -0.2331 -0.2131
 4545SOL    HW115076   3.541   3.665   0.312  0.7338  1.5923  0.1929
 4545SOL    HW215077   3.479   3.649   0.175  2.4136  2.0782 -0.6469
 4546SOL     OW15078   4.270   7.064   3.112  0.3773 -0.5952  0.3300
 4546SOL    HW115079   4.322   6.984   3.115 -0.3319 -1.2483 -2.2081
 4546SOL    HW215080   4.180   7.036   3.128  0.0499 -0.4464 -1.0756
 4547SOL     OW15081   2.374   0.175   9.993 -0.0233 -0.1127 -0.4102
 4547SOL    HW115082   2.341   0.263  10.010 -1.4547 -0.6218 -0.3993
 4547SOL    HW215083   2.335   0.150   9.909  0.3251 -0.7597 -0.3891
 4548SOL     OW15084   2.003   1.832   2.414  0.4349 -0.2308  0.3541
 4548SOL    HW115085   1.951   1.799   2.487 -0.4678  1.0063  0.3063
 4548SOL    HW215086   2.094   1.818   2.441  0.1091 -2.2072  0.5401
 4549SOL     OW15087   0.842   0.516   1.141  0.4123 -0.7335  0.0175
 4549SOL    HW115088   0.769   0.534   1.199 -0.0952 -0.6670 -0.6299
 4549SOL    HW215089   0.879   0.602   1.120  0.8810 -0.7886  0.5961
 4550SOL     OW15090   2.014   2.262   8.724 -0.4082  0.5398 -0.6065
 4550SOL    HW115091   1.972   2.348   8.720  0.3583  0.9272 -0.4798
 4550SOL    HW215092   2.107   2.280   8.717 -0.2760 -0.3507 -1.4053
 4551SOL     OW15093   4.114   3.380   2.034  0.5485  0.2286 -0.0931
 4551SOL    HW115094   4.181   3.433   1.991 -0.4215  1.4711 -0.1251
 4551SOL    HW215095   4.061   3.443   2.083 -0.1558 -0.8166  0.5314
 4552SOL     OW15096   3.725   7.181  11.069 -0.4391 -0.2078  0.0185
 4552SOL    HW115097   3.797   7.119  11.073  0.4438  0.6987 -1.0721
 4552SOL    HW215098   3.713   7.198  10.975 -0.1857  1.7515  0.2944
 4553SOL     OW15099   3.704   3.699   9.858 -0.2938  0.2086  0.9040
 4553SOL    HW115100   3.774   3.756   9.827  1.1845 -1.7119  0.5248
 4553SOL    HW215101   3.628   3.723   9.805  1.2267 -0.5845 -1.8278
 4554SOL     OW15102   6.719   5.100   9.548 -0.2588  0.4801 -0.3057
 4554SOL    HW115103   6.697   5.060   9.464 -1.9190  2.0585 -0.6927
 4554SOL    HW215104   6.752   5.187   9.526  0.2091  0.5559  0.6353
 4555SOL     OW15105   6.405   1.199  10.599 -0.0077 -0.3326 -0.2519
 4555SOL    HW115106   6.448   1.114  10.596  1.0344 -0.0020  2.3384
 4555SOL    HW215107   6.363   1.201  10.685  1.0907  2.2313  0.3152
 4556SOL     OW15108   2.941   4.905   1.685  0.1240  0.1439 -0.7220
 4556SOL    HW115109   2.888   4.918   1.764 -2.7321 -2.3111 -2.0037
 4556SOL    HW215110   3.011   4.846   1.713  0.2376  0.7611  0.3417
 4557SOL     OW15111   1.318   3.121   5.313 -0.7929  0.1830  0.2079
 4557SOL    HW115112   1.411   3.130   5.292 -0.2724 -1.7215  1.3801
 4557SOL    HW215113   1.311   3.033   5.351 -3.2542 -0.0889 -0.7022
 4558SOL     OW15114   3.306   1.815   3.272  0.3255 -0.1284  0.0097
 4558SOL    HW115115   3.314   1.881   3.341 -0.5160  0.8021 -0.7509
 4558SOL    HW215116   3.220   1.775   3.288  0.5781 -0.6372  0.1116
 4559SOL     OW15117   6.029   6.232  11.455 -0.3290 -0.3145 -0.0402
 4559SOL    HW115118   6.068   6.217  11.369  1.4073  2.3756  0.1380
 4559SOL    HW215119   5.946   6.277  11.437  0.0257  0.2301 -0.3395
 4560SOL     OW15120   7.656   4.460  12.046 -0.1064  0.2689  0.1020
 4560SOL    HW115121   7.569   4.491  12.070 -0.4354 -0.3871 -0.2018
 4560SOL    HW215122   7.639   4.381  11.993  0.6170  0.9863 -1.2660
 4561SOL     OW15123   4.873   0.592   5.479 -0.0667 -0.7988 -0.0919
 4561SOL    HW115124   4.870   0.562   5.388  0.5660 -0.2607 -0.2968
 4561SOL    HW215125   4.856   0.513   5.531 -0.5997 -1.0704 -0.6799
 4562SOL     OW15126   2.946   5.331   2.093 -0.2383  0.3688 -0.3737
 4562SOL    HW115127   2.877   5.357   2.032 -0.7539 -0.6799 -0.2675
 4562SOL    HW215128   2.979   5.248   2.057  0.2866  0.3543  0.1266
 4563SOL     OW15129   7.453   4.575   4.617 -0.2187  0.1368  0.1637
 4563SOL    HW115130   7.401   4.585   4.537 -2.4495  0.1241  1.5096
 4563SOL    HW215131   7.431   4.653   4.669 -0.1221 -0.6683  1.4432
 4564SOL     OW15132   0.263   4.299   1.011  0.0678  0.3573  0.1362
 4564SOL    HW115133   0.206   4.277   0.937 -0.4553  1.6924  0.1182
 4564SOL    HW215134   0.215   4.266   1.088 -1.4953  2.7028  0.2673
 4565SOL     OW15135   1.040   7.333   4.529  0.1815 -0.6120 -0.1455
 4565SOL    HW115136   0.979   7.283   4.475  0.0651 -0.5784 -0.0450
 4565SOL    HW215137   1.088   7.388   4.467  0.1556 -0.6861 -0.2316
 4566SOL     OW15138   7.794   2.692   7.097  0.5115 -0.2651 -1.0084
 4566SOL    HW115139   7.799   2.680   7.002 -0.7302  0.8466 -1.2498
 4566SOL    HW215140   7.880   2.663   7.129  1.2764  0.1379 -2.5572
 4567SOL     OW15141   1.162   4.241   3.823 -0.0726  0.4964 -0.2429
 4567SOL    HW115142   1.110   4.260   3.901  0.9943  2.3702  0.0728
 4567SOL    HW215143   1.252   4.237   3.855  0.1191 -1.8930 -0.9074
 4568SOL     OW15144   0.905   0.082   5.076 -0.4870 -0.2377  0.1126
 4568SOL    HW115145   0.961   0.005   5.064 -0.1480 -0.2109  1.3886
 4568SOL    HW215146   0.816   0.046   5.081 -0.6362 -0.2756 -1.9726
 4569SOL     OW15147   0.370   4.920   4.757  1.1824 -0.2482  0.5459
 4569SOL    HW115148   0.319   4.867   4.819  1.5108 -0.5567  0.5546
 4569SOL    HW215149   0.388   5.002   4.804 -1.7103  1.0850 -0.4265
 4570SOL     OW15150   4.547   5.378  12.225 -0.0972 -0.2178  0.2114
 4570SOL    HW115151   4.455   5.398  12.240 -0.1877 -0.3611 -0.1700
 4570SOL    HW215152   4.571   5.430  12.148  0.5718  1.1110  1.2690
 4571SOL     OW15153   0.337   6.212   5.046 -0.4991  0.7088  0.3542
 4571SOL    HW115154   0.373   6.181   5.129  4.8551  1.8406 -1.1480
 4571SOL    HW215155   0.314   6.131   4.999 -1.2513 -0.0588  1.9557
 4572SOL     OW15156   5.564   7.619   6.691 -0.5231 -0.2251 -0.5202
 4572SOL    HW115157   5.503   7.644   6.760 -1.5805 -0.4052 -1.3546
 4572SOL    HW215158   5.633   7.684   6.695 -1.3822  0.7020 -0.3078
 4573SOL     OW15159   0.156   0.476   0.754 -0.2421 -0.0231 -0.4736
 4573SOL    HW115160   0.220   0.406   0.767 -1.2956 -1.2095 -1.3545
 4573SOL    HW215161   0.119   0.491   0.841 -1.1310 -1.7337 -0.5062
 4574SOL     OW15162   2.735   0.967   4.977  0.4364 -0.0092 -0.1209
 4574SOL    HW115163   2.795   1.031   4.939 -0.4416  1.7544  1.2951
 4574SOL    HW215164   2.781   0.883   4.968  1.6317  0.7864 -2.0368
 4575SOL     OW15165   2.975   2.721   1.927  0.8565 -0.3646 -0.5614
 4575SOL    HW115166   2.961   2.646   1.869  1.9292 -0.9184 -0.1500
 4575SOL    HW215167   2.893   2.769   1.926  0.6258 -0.7474 -1.9857
 4576SOL     OW15168   5.480   3.176   1.796 -0.0473 -0.0104 -0.0164
 4576SOL    HW115169   5.496   3.093   1.842 -0.3788  0.1674  0.4282
 4576SOL    HW215170   5.386   3.192   1.807 -0.0412  0.2769 -0.3574
 4577SOL     OW15171   6.309   1.769   8.067 -0.5557 -0.0963 -0.1994
 4577SOL    HW115172   6.352   1.704   8.122 -1.2276  0.8636  1.5262
 4577SOL    HW215173   6.259   1.717   8.004 -1.2108 -1.2830  1.2299
 4578SOL     OW15174   2.462   4.307   8.484 -0.1719 -0.0393  0.2345
 4578SOL    HW115175   2.469   4.401   8.468 -1.9170 -0.0404 -0.8244
 4578SOL    HW215176   2.395   4.298   8.552 -0.2595 -0.5318  0.0911
 4579SOL     OW15177   4.986   0.829   1.220  0.0107 -0.2565  0.4109
 4579SOL    HW115178   5.017   0.874   1.298 -1.2216  0.6728  0.3794
 4579SOL    HW215179   5.012   0.886   1.148 -2.5961  1.0794  0.4431
 4580SOL     OW15180   4.724   7.859   6.267 -0.0085 -0.3246 -0.2143
 4580SOL    HW115181   4.741   7.952   6.278  1.5299 -0.2653 -2.3855
 4580SOL    HW215182   4.633   7.854   6.238  0.7366  0.8809 -3.1177
 4581SOL     OW15183   1.286   2.844   9.114 -0.4812 -0.4916  0.2629
 4581SOL    HW115184   1.298   2.887   9.029  2.3580 -1.8208 -0.1161
 4581SOL    HW215185   1.200   2.803   9.108 -0.9228  0.5738 -1.4464
 4582SOL     OW15186   6.764   0.608  11.565 -0.0941  0.1114  0.6039
 4582SOL    HW115187   6.825   0.595  11.638  0.9924 -1.2198 -0.4920
 4582SOL    HW215188   6.818   0.649  11.496 -1.3308  2.2709  0.8285
 4583SOL     OW15189   7.585   1.867   8.971  0.2609  0.4861 -0.4256
 4583SOL    HW115190   7.632   1.828   9.045 -0.2878  0.4370 -0.0917
 4583SOL    HW215191   7.496   1.882   9.005  0.1988  1.1171 -0.8590
 4584SOL     OW15192   1.843   2.201   5.336 -0.2573  0.5116  0.1820
 4584SOL    HW115193   1.856   2.107   5.342 -0.6720  0.4426 -0.0282
 4584SOL    HW215194   1.749   2.213   5.330 -0.2071  0.9401  0.1862
 4585SOL     OW15195   2.979   3.796   5.646 -0.1158 -0.1015 -0.1481
 4585SOL    HW115196   3.020   3.718   5.609 -0.2012 -0.0926 -0.2628
 4585SOL    HW215197   2.886   3.788   5.621 -0.1496 -0.0310 -0.0455
 4586SOL     OW15198   5.203   2.398   0.091  0.1661  0.2568 -0.0645
 4586SOL    HW115199   5.112   2.383   0.114 -0.3189 -1.7043 -2.7321
 4586SOL    HW215200   5.243   2.433   0.170 -2.8129  0.8923  1.2654
 4587SOL     OW15201   5.921   6.440   6.297 -0.4005 -0.0950  0.4700
 4587SOL    HW115202   5.886   6.498   6.366  1.2110  0.5461  0.7880
 4587SOL    HW215203   5.960   6.499   6.233  4.4435 -0.6806  2.4671
 4588SOL     OW15204   2.766   6.142  11.291  0.8395 -0.2059 -0.1565
 4588SOL    HW115205   2.811   6.181  11.215  0.1100 -0.2646 -0.6219
 4588SOL    HW215206   2.691   6.199  11.306  1.4478  0.3095  1.0824
 4589SOL     OW15207   2.330   5.211  11.005  0.1020 -0.2453  0.1551
 4589SOL    HW115208   2.378   5.136  11.039 -0.4827 -0.4486  0.5477
 4589SOL    HW215209   2.370   5.287  11.047  0.3734 -0.3762  0.1326
 4590SOL     OW15210   7.810   4.241   0.872  0.2200  0.0300 -0.2074
 4590SOL    HW115211   7.773   4.165   0.917  1.1477 -0.6238 -0.5118
 4590SOL    HW215212   7.747   4.311   0.887 -1.1400 -1.0393 -0.7120
 4591SOL     OW15213   4.830   5.921   3.485 -0.0968 -0.9199  0.0231
 4591SOL    HW115214   4.763   5.860   3.454 -0.2124 -1.0059  0.4324
 4591SOL    HW215215   4.886   5.869   3.543 -0.5453 -0.5029  0.8487
 4592SOL     OW15216   4.545   1.093   0.553  0.1610  0.5137 -0.3134
 4592SOL    HW115217   4.495   1.118   0.630  0.8527  1.7189 -0.2275
 4592SOL    HW215218   4.489   1.031   0.506  0.5125 -1.8759  2.1639
 4593SOL     OW15219   2.153   2.597   5.323 -0.0603  0.3100  0.4170
 4593SOL    HW115220   2.067   2.635   5.340 -0.4749 -0.3839 -0.0870
 4593SOL    HW215221   2.208   2.671   5.299  0.1112  1.1189  2.9579
 4594SOL     OW15222   6.035   0.800   1.456  0.4643 -0.0320  0.1256
 4594SOL    HW115223   6.086   0.824   1.379 -1.3002  0.6420 -0.9031
 4594SOL    HW215224   6.050   0.871   1.519  0.8660  0.0911 -0.1090
 4595SOL     OW15225   1.796   4.229   4.684  0.0799 -0.1043  0.2931
 4595SOL    HW115226   1.784   4.175   4.762 -1.2401 -0.7776 -0.3479
 4595SOL    HW215227   1.762   4.315   4.710  1.2488  0.1650  0.9933
 4596SOL     OW15228   5.558   7.167  11.593 -0.2634 -0.4112 -0.3659
 4596SOL    HW115229   5.623   7.096  11.596  0.4330  0.1927 -0.6794
 4596SOL    HW215230   5.611   7.247  11.592 -1.0313  0.2443  2.6767
 4597SOL     OW15231   4.251   0.548   4.064 -0.2055 -0.6241 -0.3815
 4597SOL    HW115232   4.259   0.605   4.140 -0.2447  1.5633 -1.9399
 4597SOL    HW215233   4.309   0.474   4.083 -0.7824 -0.5180  2.0529
 4598SOL     OW15234   5.367   7.095   0.966 -0.4154 -0.3280  0.2508
 4598SOL    HW115235   5.369   7.002   0.947 -1.6580 -0.4505  0.6031
 4598SOL    HW215236   5.276   7.113   0.990  0.2239  0.5826  2.1895
 4599SOL     OW15237   3.254   7.007   4.079 -0.5055  0.5217  0.2969
 4599SOL    HW115238   3.347   7.025   4.097 -0.5973  1.7019 -0.3122
 4599SOL    HW215239   3.255   6.936   4.016 -0.0500 -0.1797  1.0718
 4600SOL     OW15240   7.161   3.114   4.175 -0.0243  0.6090 -0.4936
 4600SOL    HW115241   7.239   3.144   4.128 -0.5219  1.9696 -0.5012
 4600SOL    HW215242   7.136   3.188   4.230 -2.0352  0.7006 -1.4128
 4601SOL     OW15243   6.322   4.880   7.178  0.2513  0.0766  0.3031
 4601SOL    HW115244   6.295   4.797   7.138  0.1058 -0.2067  0.9754
 4601SOL    HW215245   6.321   4.943   7.106  1.0725 -0.6616 -0.3638
 4602SOL     OW15246   2.946   1.449   7.938  0.3413 -0.1664  0.6471
 4602SOL    HW115247   3.010   1.424   7.872  0.5170 -1.4924  1.2955
 4602SOL    HW215248   2.866   1.469   7.888  0.6258 -0.6320 -0.0034
 4603SOL     OW15249   6.862   2.110   0.286  0.2751 -0.2936  0.2649
 4603SOL    HW115250   6.922   2.035   0.296  0.6824 -0.2529 -1.4310
 4603SOL    HW215251   6.828   2.101   0.196  0.4687  1.6369 -0.0477
 4604SOL     OW15252   7.663   3.418   4.817 -0.5680 -0.2902 -0.5076
 4604SOL    HW115253   7.596   3.473   4.859  1.3736  0.8847  1.2871
 4604SOL    HW215254   7.707   3.477   4.756  0.7537 -0.1211  0.5572
 4605SOL     OW15255   2.237   6.024   3.926 -0.0807 -0.1579  0.0034
 4605SOL    HW115256   2.286   6.107   3.926  0.3376 -0.4005  0.4801
 4605SOL    HW215257   2.299   5.960   3.960 -1.0712 -0.2651  1.7148
 4606SOL     OW15258   0.877   7.749   0.100 -0.4589 -0.1037  0.0398
 4606SOL    HW115259   0.956   7.696   0.092 -0.4378 -0.2419  1.0505
 4606SOL    HW215260   0.854   7.772   0.010  0.6335 -0.1994 -0.2737
 4607SOL     OW15261   7.494   1.431   3.157 -0.1434 -0.4956 -0.1842
 4607SOL    HW115262   7.417   1.375   3.167 -0.2603 -0.2502  0.3031
 4607SOL    HW215263   7.562   1.386   3.207  0.0915 -0.8219 -0.7886
 4608SOL     OW15264   5.164   4.446   5.266 -0.2463 -0.1173  0.4487
 4608SOL    HW115265   5.186   4.398   5.186 -0.4614  0.4374  0.0526
 4608SOL    HW215266   5.076   4.480   5.250  1.0971  3.2424 -0.6933
 4609SOL     OW15267   3.137   2.351   4.816  0.3411 -0.3731  0.5100
 4609SOL    HW115268   3.045   2.377   4.812  0.0124 -1.6018 -0.6747
 4609SOL    HW215269   3.178   2.392   4.740  0.1489 -1.9689 -0.5062
 4610SOL     OW15270   2.014   6.287   7.172 -0.0951  0.2484  0.7346
 4610SOL    HW115271   2.000   6.293   7.267 -0.0641 -0.7001  0.8014
 4610SOL    HW215272   1.928   6.307   7.134 -0.7390 -1.7351  1.0418
 4611SOL     OW15273   5.668   3.777   3.738 -0.0140  0.4678 -0.1763
 4611SOL    HW115274   5.708   3.838   3.801 -1.0400 -0.7199  1.7371
 4611SOL    HW215275   5.635   3.833   3.668  2.7840  1.7068 -0.6615
 4612SOL     OW15276   5.952   1.675   1.201  0.6117 -0.2564 -0.1751
 4612SOL    HW115277   5.996   1.598   1.163  1.1493 -0.3545  0.6284
 4612SOL    HW215278   5.920   1.644   1.286  0.1496  0.1970 -0.1829
 4613SOL     OW15279   3.228   5.533   8.707  0.6199 -0.1455  0.0302
 4613SOL    HW115280   3.245   5.614   8.754  1.0290 -0.7793  1.0067
 4613SOL    HW215281   3.173   5.559   8.633 -0.3007  0.8425  1.0261
 4614SOL     OW15282   3.225   4.961   7.543 -0.7859  0.1835 -0.4070
 4614SOL    HW115283   3.150   4.922   7.587 -0.4186  1.0324  1.0153
 4614SOL    HW215284   3.295   4.897   7.555 -0.3546  0.9271  1.3777
 4615SOL     OW15285   4.672   4.086   1.986  0.0592 -0.3829 -0.3004
 4615SOL    HW115286   4.675   3.994   2.009  0.5066 -0.5541 -1.0221
 4615SOL    HW215287   4.586   4.116   2.017 -0.0488 -1.0094  0.0158
 4616SOL     OW15288   0.649   3.725   5.926 -0.1669  0.2919  0.5326
 4616SOL    HW115289   0.725   3.667   5.926 -0.0138  0.4545  2.0069
 4616SOL    HW215290   0.592   3.689   5.994 -0.4826  1.3443  0.8392
 4617SOL     OW15291   7.647   6.359   2.871 -0.4638  0.2572 -0.0895
 4617SOL    HW115292   7.615   6.271   2.891 -3.7671  1.1428 -0.8650
 4617SOL    HW215293   7.716   6.345   2.807  0.2811 -1.8079  1.0354
 4618SOL     OW15294   6.042   0.206  10.409 -0.4281 -0.1528  0.0680
 4618SOL    HW115295   6.093   0.250  10.477  0.1114 -1.0738  0.2704
 4618SOL    HW215296   5.954   0.244  10.418 -0.6556 -1.0246  2.0219
 4619SOL     OW15297   6.278   7.894   5.627 -0.2017  0.2140 -0.1649
 4619SOL    HW115298   6.267   7.928   5.538 -1.0422 -0.8385 -0.4897
 4619SOL    HW215299   6.345   7.827   5.618 -0.6646 -0.2659 -0.1326
 4620SOL     OW15300   7.500   7.381   4.151 -0.2267  0.0429 -0.0295
 4620SOL    HW115301   7.442   7.455   4.168 -1.2137 -1.0481  1.6647
 4620SOL    HW215302   7.461   7.308   4.199  1.8050 -1.0888  0.0356
 4621SOL     OW15303   2.524   6.520   4.405 -0.1495  0.1128  0.1642
 4621SOL    HW115304   2.477   6.440   4.381  0.7673 -0.2649 -0.4343
 4621SOL    HW215305   2.617   6.497   4.395  0.1233  1.6039 -1.1665
 4622SOL     OW15306   1.235   6.918   3.169 -0.4603  0.2593 -0.0147
 4622SOL    HW115307   1.161   6.917   3.231  0.3872  0.1069  1.0306
 4622SOL    HW215308   1.312   6.922   3.225  0.3033  1.7320 -1.1216
 4623SOL     OW15309   6.807   2.899   0.183 -0.1267 -0.1004  0.1328
 4623SOL    HW115310   6.799   2.822   0.127 -0.0936  0.2396 -0.3474
 4623SOL    HW215311   6.879   2.949   0.143 -1.8632  1.4966 -1.1541
 4624SOL     OW15312   5.540   1.183   9.292  0.0239 -0.1830 -0.0391
 4624SOL    HW115313   5.529   1.252   9.358  0.4395  0.1724 -0.3356
 4624SOL    HW215314   5.512   1.223   9.210 -0.5098 -0.6325 -0.0773
 4625SOL     OW15315   3.095   2.562   4.241  0.3091  0.3017  0.3500
 4625SOL    HW115316   3.074   2.646   4.199  0.7743  0.0647 -0.3843
 4625SOL    HW215317   3.141   2.513   4.173 -0.5858 -0.8306  0.5450
 4626SOL     OW15318   3.521   3.931  11.697  0.4440  0.2845  0.2008
 4626SOL    HW115319   3.534   3.921  11.603  2.1487 -1.8999  0.5956
 4626SOL    HW215320   3.528   4.025  11.713 -0.0108  0.7030 -1.8440
 4627SOL     OW15321   6.803   5.137   4.588 -0.4807 -0.3946 -0.1850
 4627SOL    HW115322   6.879   5.145   4.646 -0.2358  0.1847 -0.5743
 4627SOL    HW215323   6.784   5.226   4.561 -0.8770 -0.6093 -0.6339
 4628SOL     OW15324   0.422   7.852   2.910 -0.1340 -0.0716 -0.1060
 4628SOL    HW115325   0.332   7.818   2.914 -0.0780 -0.6023 -2.1874
 4628SOL    HW215326   0.412   7.947   2.920 -0.8669 -0.1584  0.0803
 4629SOL     OW15327   5.956   4.535   7.556 -0.5003 -0.4916  0.4957
 4629SOL    HW115328   6.018   4.589   7.508 -1.1337 -0.8975 -0.8233
 4629SOL    HW215329   6.008   4.493   7.624  0.8590 -1.4033 -1.0360
 4630SOL     OW15330   6.021   1.783  10.042 -0.1085  0.1961 -0.1648
 4630SOL    HW115331   6.063   1.842   9.980  1.4197 -0.9462 -0.2725
 4630SOL    HW215332   5.935   1.822  10.058 -0.2166  0.9778 -2.3237
 4631SOL     OW15333   7.206   5.954   4.796 -0.2731  0.2490  0.4029
 4631SOL    HW115334   7.213   5.975   4.889  0.9077  1.9136 -0.0033
 4631SOL    HW215335   7.166   5.867   4.793 -1.4679  0.6825  2.4036
 4632SOL     OW15336   5.667   4.476   5.618  0.4923  0.1299  0.1032
 4632SOL    HW115337   5.667   4.384   5.645  0.5153  0.0225 -0.2532
 4632SOL    HW215338   5.747   4.486   5.566  0.4117  0.3109  0.0107
 4633SOL     OW15339   2.213   3.897   9.633  0.1667 -0.2045 -0.6680
 4633SOL    HW115340   2.294   3.939   9.605 -0.6529  0.6993 -1.7792
 4633SOL    HW215341   2.229   3.803   9.622  1.3319 -0.0898 -0.0791
 4634SOL     OW15342   1.611   6.522  11.437  0.7188  0.3911 -0.0528
 4634SOL    HW115343   1.621   6.427  11.440 -2.7091 -0.2711 -2.5925
 4634SOL    HW215344   1.564   6.543  11.518  1.0529 -0.1528  0.2899
 4635SOL     OW15345   4.335   1.966   4.862 -0.1913 -0.5773 -1.0630
 4635SOL    HW115346   4.318   2.031   4.930  1.2489  0.1594 -1.3613
 4635SOL    HW215347   4.355   1.886   4.911 -0.6258 -0.4384 -0.6558
 4636SOL     OW15348   4.773   4.987   4.122 -0.5094  0.1347  0.2429
 4636SOL    HW115349   4.693   4.946   4.155 -1.0257  2.1371  1.7052
 4636SOL    HW215350   4.748   5.079   4.106  1.2961  0.6200 -0.0585
 4637SOL     OW15351   2.450   4.832   9.420 -0.2933 -0.1170  0.0317
 4637SOL    HW115352   2.515   4.767   9.395  0.0052  0.5257 -0.9127
 4637SOL    HW215353   2.479   4.863   9.506  0.2102 -0.3943 -0.0348
 4638SOL     OW15354   1.018   2.253   5.909  0.3780  0.3369  0.1114
 4638SOL    HW115355   0.959   2.177   5.913  0.8812 -0.1441 -1.1508
 4638SOL    HW215356   0.994   2.296   5.827  0.3928  1.3185  0.6118
 4639SOL     OW15357   1.213   0.161   9.398 -0.0207  0.2262 -0.7466
 4639SOL    HW115358   1.191   0.131   9.486 -0.1408 -0.2396 -0.9316
 4639SOL    HW215359   1.132   0.151   9.348  0.2731 -0.3357 -1.1233
 4640SOL     OW15360   2.394   5.556   6.524  0.1451 -0.2764  0.3038
 4640SOL    HW115361   2.443   5.601   6.455 -1.3342 -1.1543 -1.4000
 4640SOL    HW215362   2.456   5.492   6.560  0.8498 -0.0316 -0.4429
 4641SOL     OW15363   1.784   1.995   5.960  0.0396  0.0112  0.2208
 4641SOL    HW115364   1.748   1.929   6.020  1.7551 -0.0861  1.2116
 4641SOL    HW215365   1.722   1.998   5.888 -0.3358 -2.3674  0.3634
 4642SOL     OW15366   5.052   0.209  11.424  0.3006 -0.0343 -0.4172
 4642SOL    HW115367   5.133   0.202  11.475 -0.0918 -2.1453  0.0088
 4642SOL    HW215368   4.982   0.190  11.487 -0.5764  1.7091 -0.7879
 4643SOL     OW15369   2.625   3.868  11.176 -0.2378 -0.7502 -0.0561
 4643SOL    HW115370   2.650   3.960  11.173 -1.8993 -0.1848  1.4204
 4643SOL    HW215371   2.607   3.844  11.085  0.6216  0.2444 -0.5042
 4644SOL     OW15372   7.502   6.602   5.693  0.0348  0.6217  0.0661
 4644SOL    HW115373   7.567   6.532   5.688  1.4238  1.8860 -0.3346
 4644SOL    HW215374   7.425   6.561   5.732  0.9795 -0.9861  0.3116
 4645SOL     OW15375   2.534   2.340   7.561  0.5563 -0.0644  0.2527
 4645SOL    HW115376   2.496   2.281   7.627 -0.4583  1.0021  0.6573
 4645SOL    HW215377   2.476   2.333   7.486  1.4170 -0.8727 -0.3669
 4646SOL     OW15378   1.968   4.903  11.886 -0.0867  0.2655  0.3199
 4646SOL    HW115379   1.981   4.878  11.978  0.9444  0.2845  0.1838
 4646SOL    HW215380   1.877   4.880  11.868 -0.1499 -0.2144  1.2003
 4647SOL     OW15381   4.861   3.296  10.794  0.2330 -0.0347  0.1371
 4647SOL    HW115382   4.783   3.291  10.849 -0.0539  2.3435  0.0351
 4647SOL    HW215383   4.909   3.215  10.813 -2.4028 -1.7763 -0.1015
 4648SOL     OW15384   0.483   7.803  11.849 -0.0586  0.1224 -0.4144
 4648SOL    HW115385   0.534   7.837  11.923 -1.4676  0.5940  0.3962
 4648SOL    HW215386   0.527   7.722  11.824  0.4371 -0.0800  1.0061
 4649SOL     OW15387   1.719   0.863   3.385  0.4784 -0.5572 -0.3392
 4649SOL    HW115388   1.638   0.911   3.402 -0.0291 -1.0983 -1.1457
 4649SOL    HW215389   1.726   0.801   3.457  1.1407  0.6827  0.7189
 4650SOL     OW15390   7.670   7.603  10.553  0.3798 -0.0015 -0.0555
 4650SOL    HW115391   7.731   7.667  10.591  1.4171 -1.4110  0.7749
 4650SOL    HW215392   7.706   7.518  10.580 -1.3672 -0.9114 -0.4849
 4651SOL     OW15393   1.154   4.207   6.821 -0.6574 -0.1763  0.2202
 4651SOL    HW115394   1.244   4.222   6.850 -0.5384 -1.1050  0.3675
 4651SOL    HW215395   1.121   4.138   6.878 -1.6642  0.5247  0.5324
 4652SOL     OW15396   5.213   7.596   8.180 -0.0993  0.3596 -0.1264
 4652SOL    HW115397   5.143   7.575   8.241 -0.5713  0.1566 -0.7288
 4652SOL    HW215398   5.201   7.689   8.160  0.3926  0.5652  0.5109
 4653SOL     OW15399   4.630   7.865   0.108 -0.3621 -0.0252 -0.1181
 4653SOL    HW115400   4.546   7.841   0.149 -0.5348  0.0187 -0.4473
 4653SOL    HW215401   4.606   7.929   0.041  0.1090  1.3153  0.9272
 4654SOL     OW15402   5.762   1.482   0.814  0.7065 -0.3727  0.1330
 4654SOL    HW115403   5.829   1.539   0.777 -0.7310  1.7445  0.6486
 4654SOL    HW215404   5.753   1.510   0.905 -1.9438  0.5383 -0.3112
 4655SOL     OW15405   1.037   6.611   1.195 -0.1139 -0.3497 -0.3875
 4655SOL    HW115406   0.944   6.588   1.195 -0.5019  1.1518 -0.4807
 4655SOL    HW215407   1.044   6.685   1.134  0.9854  0.1256  0.2828
 4656SOL     OW15408   6.576   3.512   0.463 -0.0631  0.0788 -0.5801
 4656SOL    HW115409   6.670   3.514   0.448  0.2367  0.4294  1.1410
 4656SOL    HW215410   6.555   3.419   0.470  0.5402  0.0381  1.0639
 4657SOL     OW15411   6.573   3.225   8.818  0.2493  0.1410  0.3244
 4657SOL    HW115412   6.576   3.196   8.910 -0.0056 -0.2136  0.2243
 4657SOL    HW215413   6.480   3.240   8.801  0.2966  0.1967  0.1193
 4658SOL     OW15414   7.786   2.463   2.066 -0.4443  0.1811  0.3475
 4658SOL    HW115415   7.741   2.537   2.108  0.3747  0.9038 -0.0249
 4658SOL    HW215416   7.864   2.449   2.119 -1.0767 -1.0911  1.0046
 4659SOL     OW15417   4.165   3.977   1.685  0.2088  1.2795 -0.0543
 4659SOL    HW115418   4.166   3.964   1.590  1.6290 -0.1304  0.1206
 4659SOL    HW215419   4.102   3.912   1.718  1.3719  0.2183  0.1347
 4660SOL     OW15420   3.226   0.196   6.747 -0.1406  0.0380  0.7826
 4660SOL    HW115421   3.291   0.210   6.678 -0.2622 -0.4212  0.5656
 4660SOL    HW215422   3.213   0.101   6.748 -1.8629  0.2087 -0.1797
 4661SOL     OW15423   6.918   7.054   5.627  0.6466  0.6020  0.5947
 4661SOL    HW115424   6.863   7.048   5.705 -0.9718 -2.7158 -0.6204
 4661SOL    HW215425   6.879   7.124   5.575 -0.6451  0.2901  1.1007
 4662SOL     OW15426   2.172   0.997   7.314 -0.0585  0.1273  0.0646
 4662SOL    HW115427   2.265   1.010   7.331 -0.1964 -0.3814  1.3124
 4662SOL    HW215428   2.129   1.017   7.397 -0.9490 -0.7544 -0.1543
 4663SOL     OW15429   2.734   1.461   6.125 -0.3713  0.4153  0.0249
 4663SOL    HW115430   2.746   1.538   6.069  3.0673  1.2696  1.6078
 4663SOL    HW215431   2.727   1.497   6.214  0.4672 -1.0208  0.7141
 4664SOL     OW15432   1.050   1.242  10.028 -0.3884  0.0808 -0.1127
 4664SOL    HW115433   0.980   1.308  10.034 -0.9908 -0.4391 -1.0955
 4664SOL    HW215434   1.087   1.238  10.116 -0.7616  1.2727  0.1183
 4665SOL     OW15435   0.105   2.726  12.001 -0.0784  0.0079 -0.4440
 4665SOL    HW115436   0.050   2.741  11.924 -0.2054  2.6059  0.0681
 4665SOL    HW215437   0.186   2.690  11.966 -0.2832  0.7640 -1.7594
 4666SOL     OW15438   0.678   1.978   5.352  0.1816  0.8272  0.2359
 4666SOL    HW115439   0.645   1.976   5.442 -0.6594 -0.2830 -0.0759
 4666SOL    HW215440   0.708   1.888   5.335 -2.2808  0.2477 -1.4967
 4667SOL     OW15441   1.423   1.063   5.130 -0.1077  0.4510  0.5628
 4667SOL    HW115442   1.401   1.105   5.047 -1.3064 -0.3171  0.4663
 4667SOL    HW215443   1.344   1.071   5.183 -0.2450 -1.2567  0.6943
 4668SOL     OW15444   7.534   0.928   9.782 -0.1685  0.1426 -0.2030
 4668SOL    HW115445   7.611   0.910   9.729  0.4416  2.1314 -0.0470
 4668SOL    HW215446   7.558   0.897   9.870 -0.6625 -1.8635 -0.7249
 4669SOL     OW15447   1.666   4.511  10.079  0.0523  0.0602 -0.1961
 4669SOL    HW115448   1.712   4.461  10.012  0.2157  1.0481 -0.8435
 4669SOL    HW215449   1.697   4.601  10.068  0.5584  0.1478  1.6212
 4670SOL     OW15450   6.436   5.680   0.106  0.3662  0.3971 -0.5440
 4670SOL    HW115451   6.361   5.649   0.055  0.4949 -0.2076 -0.3819
 4670SOL    HW215452   6.491   5.725   0.043 -0.0496  0.6945 -0.6999
 4671SOL     OW15453   7.408   7.170   2.066  0.2464  0.6279 -0.3826
 4671SOL    HW115454   7.478   7.124   2.021  0.7239  1.7244 -0.7967
 4671SOL    HW215455   7.363   7.102   2.117  1.3936 -0.1508 -0.3728
 4672SOL     OW15456   5.548   6.955   5.530 -0.0302  0.0553  0.4796
 4672SOL    HW115457   5.555   6.991   5.442  0.3038 -1.1176 -0.0015
 4672SOL    HW215458   5.573   6.863   5.520  3.9725  0.6922  2.4122
 4673SOL     OW15459   6.390   7.217   2.355 -0.1403 -0.1842 -0.1937
 4673SOL    HW115460   6.297   7.229   2.373  0.0081  1.3053 -0.3364
 4673SOL    HW215461   6.399   7.236   2.261  0.0327 -2.1959 -0.6443
 4674SOL     OW15462   0.503   7.910   5.591  0.2138 -0.0438 -0.5687
 4674SOL    HW115463   0.594   7.938   5.582  0.0464  0.0120 -2.7442
 4674SOL    HW215464   0.464   7.927   5.505 -1.8695 -0.0401  0.3032
 4675SOL     OW15465   7.462   1.597  12.118  0.2370  0.1277  0.6949
 4675SOL    HW115466   7.397   1.527  12.109 -0.8239  1.2569 -1.2040
 4675SOL    HW215467   7.481   1.623  12.027  2.4831  0.6455  1.2495
 4676SOL     OW15468   1.821   2.862   7.490 -0.1891 -0.4604 -0.0981
 4676SOL    HW115469   1.893   2.868   7.428  1.0949  0.6420  1.4262
 4676SOL    HW215470   1.802   2.953   7.514 -0.6161 -0.8504  1.1463
 4677SOL     OW15471   0.256   1.373   5.825 -0.5577 -0.9926 -0.1183
 4677SOL    HW115472   0.277   1.280   5.827  2.6032 -0.3791  0.0749
 4677SOL    HW215473   0.298   1.409   5.903 -1.7449  0.6152 -0.1778
 4678SOL     OW15474   2.628   3.463   1.538 -0.0517  0.1631  0.0522
 4678SOL    HW115475   2.587   3.377   1.543  0.9756 -0.2988  0.7743
 4678SOL    HW215476   2.568   3.515   1.484 -0.5194 -1.0866 -0.6634
 4679SOL     OW15477   1.903   3.658   6.257  0.7450  0.6020  0.1201
 4679SOL    HW115478   1.928   3.617   6.340  1.2101 -0.0510 -0.3263
 4679SOL    HW215479   1.983   3.655   6.204  0.2358  0.2574 -0.6437
 4680SOL     OW15480   5.678   6.542   9.651 -0.5728 -0.6448 -0.4794
 4680SOL    HW115481   5.720   6.548   9.737 -0.7813 -1.2227 -0.3347
 4680SOL    HW215482   5.731   6.478   9.604 -1.3388 -1.4573 -0.2607
 4681SOL     OW15483   7.004   3.128   1.608  0.1311  0.3762  0.0132
 4681SOL    HW115484   7.018   3.111   1.701 -1.3560  1.0308  0.4009
 4681SOL    HW215485   6.910   3.116   1.596  0.4856 -1.0132 -1.7166
 4682SOL     OW15486   6.401   7.237   3.853  0.1308  0.3742  0.7352
 4682SOL    HW115487   6.463   7.285   3.799  0.9305  0.5346  1.7454
 4682SOL    HW215488   6.350   7.305   3.897 -1.5905  0.2453 -0.9443
 4683SOL     OW15489   7.351   5.201   7.967  0.0992  0.1072  0.1032
 4683SOL    HW115490   7.306   5.281   7.939  0.0020  0.3021  0.7824
 4683SOL    HW215491   7.284   5.152   8.015  0.0055 -0.6468 -0.7946
 4684SOL     OW15492   3.158   4.497   0.517  0.2261 -0.4808  0.5087
 4684SOL    HW115493   3.103   4.433   0.562  0.5525  0.4580  2.3118
 4684SOL    HW215494   3.172   4.567   0.581  1.6782  0.3648 -0.6657
 4685SOL     OW15495   6.447   4.782   8.272 -0.1509  0.2603  0.1887
 4685SOL    HW115496   6.478   4.872   8.282  1.0689 -0.0865 -0.2504
 4685SOL    HW215497   6.442   4.747   8.361  1.7914  0.0048  0.2313
 4686SOL     OW15498   2.902   4.237   2.859 -0.1447 -0.2022 -0.7009
 4686SOL    HW115499   2.836   4.293   2.900  0.2650  2.0221 -2.8575
 4686SOL    HW215500   2.926   4.174   2.928 -1.1631  1.8102  1.6633
 4687SOL     OW15501   3.424   0.618   5.325  0.0362  0.6307  0.0162
 4687SOL    HW115502   3.469   0.699   5.301  0.4509  0.2870 -0.3919
 4687SOL    HW215503   3.488   0.568   5.375  0.1658  0.0828 -0.6779
 4688SOL     OW15504   0.198   6.797   5.820 -0.7542  0.0985 -0.0407
 4688SOL    HW115505   0.165   6.710   5.799 -3.4049  1.0032 -0.0774
 4688SOL    HW215506   0.225   6.833   5.736  0.6643 -0.7582  0.0195
 4689SOL     OW15507   5.363   1.735   4.628 -0.3931  0.0570  0.5893
 4689SOL    HW115508   5.282   1.746   4.579 -1.0640 -0.9066  1.4358
 4689SOL    HW215509   5.338   1.683   4.704  1.2809 -1.4327  0.1826
 4690SOL     OW15510   6.555   5.676   6.666  0.3509 -0.2385  0.2088
 4690SOL    HW115511   6.589   5.760   6.636 -0.5171 -0.5733 -1.8852
 4690SOL    HW215512   6.606   5.611   6.617  0.4305 -0.9201  1.1660
 4691SOL     OW15513   2.321   6.995   2.907  0.5452 -0.3964  0.5570
 4691SOL    HW115514   2.272   6.992   2.989  0.3708  1.4313  0.5573
 4691SOL    HW215515   2.281   6.927   2.853 -2.8003  1.6618  0.1638
 4692SOL     OW15516   3.718   2.411   0.956  0.6157  0.3814 -0.0724
 4692SOL    HW115517   3.687   2.497   0.981 -0.5744  0.4644 -1.6479
 4692SOL    HW215518   3.749   2.371   1.037 -0.0781  1.7740  0.9031
 4693SOL     OW15519   0.605   2.999   5.706  0.2603  0.1123 -0.2204
 4693SOL    HW115520   0.596   3.088   5.673 -0.6328  0.5444  1.0879
 4693SOL    HW215521   0.529   2.952   5.671 -0.5539  0.5077  0.9357
 4694SOL     OW15522   5.083   4.892   7.812 -0.8150 -0.8567  0.3334
 4694SOL    HW115523   5.093   4.804   7.775  2.6747 -0.4519 -0.0066
 4694SOL    HW215524   5.126   4.887   7.897  1.9030  1.0836 -0.8052
 4695SOL     OW15525   4.327   6.469   7.583 -0.1267  0.0117  0.2419
 4695SOL    HW115526   4.256   6.404   7.578  0.7606 -0.9100 -0.9469
 4695SOL    HW215527   4.400   6.429   7.536  0.6123  1.6821 -0.1086
 4696SOL     OW15528   6.594   7.392   3.707 -0.3218 -0.3554 -0.0983
 4696SOL    HW115529   6.661   7.396   3.775 -1.1397  2.2492  0.6614
 4696SOL    HW215530   6.623   7.455   3.641 -0.5962 -1.3357 -1.1838
 4697SOL     OW15531   0.446   5.819   8.945 -0.4241 -0.1969  0.1234
 4697SOL    HW115532   0.352   5.799   8.945 -0.5963  0.4148 -2.0695
 4697SOL    HW215533   0.455   5.892   9.006 -1.2550 -0.6379  0.8041
 4698SOL     OW15534   1.515   5.588   8.444  0.3181  0.6240 -0.2203
 4698SOL    HW115535   1.455   5.545   8.383 -0.0071  0.9865 -0.1640
 4698SOL    HW215536   1.458   5.640   8.501  0.7312  1.5040 -0.5915
 4699SOL     OW15537   6.120   6.175   8.902  0.2057  0.0465 -0.6197
 4699SOL    HW115538   6.160   6.235   8.965  2.2124 -1.1006 -0.7281
 4699SOL    HW215539   6.107   6.094   8.950 -1.2466  0.0994 -0.8539
 4700SOL     OW15540   5.735   2.681   4.563 -0.5519 -0.0529  0.0033
 4700SOL    HW115541   5.726   2.640   4.477  0.1330 -0.4489  0.1137
 4700SOL    HW215542   5.731   2.609   4.625 -0.5739  0.1804  0.2768
 4701SOL     OW15543   7.553   5.776   3.913 -0.1924 -0.3943  0.0875
 4701SOL    HW115544   7.612   5.700   3.913  0.5084  0.1381  0.3391
 4701SOL    HW215545   7.610   5.850   3.893 -1.1755 -0.1433 -1.9965
 4702SOL     OW15546   3.780   6.170  11.049 -0.2088  0.0319  0.0576
 4702SOL    HW115547   3.731   6.233  10.997 -0.7202  0.6613  1.2537
 4702SOL    HW215548   3.717   6.137  11.113  0.7405  0.3641  1.2107
 4703SOL     OW15549   2.654   1.964   1.997 -0.1730  0.3916 -0.1382
 4703SOL    HW115550   2.688   2.039   1.949  1.1405 -0.5794 -0.7988
 4703SOL    HW215551   2.669   1.986   2.089  0.8108  0.6773 -0.3485
 4704SOL     OW15552   7.439   6.674   4.970  0.1520 -0.0021 -0.0495
 4704SOL    HW115553   7.387   6.606   4.928  0.3396  0.7166 -1.4837
 4704SOL    HW215554   7.498   6.707   4.902  0.5448  1.1352  0.7851
 4705SOL     OW15555   4.793   5.343   1.073 -0.2073 -0.1768  0.2870
 4705SOL    HW115556   4.703   5.340   1.040 -0.9645  0.4371  2.1349
 4705SOL    HW215557   4.826   5.254   1.062 -1.6209 -0.8268  1.0615
 4706SOL     OW15558   0.322   6.416   7.932 -0.1778 -0.4141  0.1262
 4706SOL    HW115559   0.292   6.462   8.011  2.4484 -0.4969  1.2812
 4706SOL    HW215560   0.279   6.330   7.938 -2.1286  0.4860 -0.0347
 4707SOL     OW15561   2.339   1.280   3.536  0.2381  0.1010 -0.4121
 4707SOL    HW115562   2.308   1.208   3.481 -2.1944  1.5495 -1.0839
 4707SOL    HW215563   2.349   1.240   3.623 -2.8637 -0.7457 -0.3323
 4708SOL     OW15564   1.124   4.493   1.779  0.0237  0.6419  0.0278
 4708SOL    HW115565   1.206   4.471   1.825  1.2670 -0.2369 -2.4160
 4708SOL    HW215566   1.070   4.414   1.786  0.9864 -0.2114 -1.4906
 4709SOL     OW15567   4.795   6.397   5.213 -0.6202  0.2943 -0.3660
 4709SOL    HW115568   4.806   6.367   5.303 -0.8074  0.1160 -0.4016
 4709SOL    HW215569   4.721   6.346   5.179  1.1694 -1.6928 -1.5152
 4710SOL     OW15570   6.927   2.219   9.314 -0.0351 -0.3689 -0.1244
 4710SOL    HW115571   6.989   2.252   9.248  1.0640 -1.1688  0.4659
 4710SOL    HW215572   6.871   2.158   9.265  0.5943 -0.7527 -0.3851
 4711SOL     OW15573   5.174   1.737   2.855 -0.2719  0.2348 -0.4870
 4711SOL    HW115574   5.081   1.758   2.849 -0.2084  0.4501 -0.7146
 4711SOL    HW215575   5.181   1.650   2.816  0.1030  1.5064 -3.5641
 4712SOL     OW15576   2.623   3.586   4.605  0.2590  0.0153 -0.1811
 4712SOL    HW115577   2.592   3.572   4.516  0.5742  0.1329 -0.3121
 4712SOL    HW215578   2.694   3.650   4.596 -0.6372  1.1044  0.3148
 4713SOL     OW15579   6.247   3.860   5.815  0.7888 -0.6496 -0.0292
 4713SOL    HW115580   6.319   3.857   5.877  0.8181  1.4064  0.1009
 4713SOL    HW215581   6.247   3.950   5.783 -1.7507 -0.5726  0.0109
 4714SOL     OW15582   5.694   3.905  10.379  0.2113 -0.4083 -0.7841
 4714SOL    HW115583   5.766   3.844  10.364  0.6868 -0.6446  1.9386
 4714SOL    HW215584   5.737   3.990  10.389  0.3286 -0.6814  1.7371
 4715SOL     OW15585   0.960   6.135   7.192 -0.2579  0.1872  0.1637
 4715SOL    HW115586   0.944   6.216   7.241  0.6205  0.1781  0.4730
 4715SOL    HW215587   0.973   6.069   7.260  1.3914  0.2495 -0.0514
 4716SOL     OW15588   1.007   7.363   2.607  0.1756  0.7900 -0.8489
 4716SOL    HW115589   0.939   7.334   2.669  0.1205 -1.6503 -1.9611
 4716SOL    HW215590   1.004   7.459   2.612 -2.0359  0.7217  0.5302
 4717SOL     OW15591   5.506   6.184   3.659 -0.1553  0.1276 -0.3851
 4717SOL    HW115592   5.533   6.267   3.620  0.4763 -0.0717 -0.3726
 4717SOL    HW215593   5.537   6.188   3.749  0.0858 -0.2167 -0.4498
 4718SOL     OW15594   7.899   1.799   2.185 -0.1236 -0.7658  0.4221
 4718SOL    HW115595   7.984   1.766   2.156  0.3125  0.2157  0.5324
 4718SOL    HW215596   7.871   1.857   2.115  0.3860  0.6990  1.3893
 4719SOL     OW15597   7.716   0.639   6.003  0.0779 -0.0646 -0.1395
 4719SOL    HW115598   7.669   0.649   6.086 -0.4501  0.6997 -0.5113
 4719SOL    HW215599   7.805   0.667   6.023 -0.4115  1.6202 -0.1747
 4720SOL     OW15600   0.035   6.172   6.720 -0.5034 -0.0712 -0.3159
 4720SOL    HW115601   0.119   6.131   6.741 -1.5108 -1.2896  1.5527
 4720SOL    HW215602   0.009   6.132   6.636  0.0073 -0.9171 -0.0790
 4721SOL     OW15603   7.718   5.018   0.665 -0.0413  0.2701  0.3563
 4721SOL    HW115604   7.801   5.061   0.684  0.0561  0.5733 -0.6946
 4721SOL    HW215605   7.736   4.960   0.591 -0.7780  0.4186  0.0436
 4722SOL     OW15606   5.539   5.487   1.424 -0.1421 -0.1009  0.3033
 4722SOL    HW115607   5.622   5.535   1.421 -0.6090  0.9112  2.2536
 4722SOL    HW215608   5.561   5.399   1.395  1.5861  0.1832  0.6542
 4723SOL     OW15609   5.410   0.326   3.167 -1.0494  0.6829  0.1319
 4723SOL    HW115610   5.459   0.244   3.163 -1.3967  0.4546  0.4338
 4723SOL    HW215611   5.419   0.364   3.080 -0.2761  0.6845  0.2091
 4724SOL     OW15612   1.424   6.396  11.178 -0.1700 -0.0522  0.2952
 4724SOL    HW115613   1.390   6.485  11.168  1.7625  0.9249  1.7920
 4724SOL    HW215614   1.463   6.395  11.265 -0.2328 -2.4373  0.3553
 4725SOL     OW15615   5.318   0.332  10.625 -0.2145  0.6722 -0.2589
 4725SOL    HW115616   5.287   0.399  10.564 -0.2021 -0.7487 -1.8748
 4725SOL    HW215617   5.316   0.251  10.575  0.4996 -0.4279  1.4251
 4726SOL     OW15618   0.010   5.001   8.091 -0.0060  0.4185  0.3576
 4726SOL    HW115619  -0.016   5.093   8.089 -0.9099  0.1896  0.9783
 4726SOL    HW215620  -0.044   4.963   8.161  0.0046 -0.6851 -0.2285
 4727SOL     OW15621   7.193   7.788   5.807  0.1119  0.9751 -0.1434
 4727SOL    HW115622   7.134   7.855   5.771 -0.9910 -0.7590 -1.7536
 4727SOL    HW215623   7.281   7.823   5.792 -0.4408  2.6008  0.2077
 4728SOL     OW15624   4.909   3.493   7.886  0.1916  0.1379 -0.1136
 4728SOL    HW115625   4.933   3.412   7.930 -0.1388 -0.1463 -0.4590
 4728SOL    HW215626   4.880   3.466   7.799 -0.1323  0.6052 -0.1538
 4729SOL     OW15627   1.983   4.172   6.682 -0.0400  0.0766 -0.0367
 4729SOL    HW115628   1.910   4.182   6.743 -0.2640  0.2363 -0.3266
 4729SOL    HW215629   1.976   4.081   6.653  0.6293 -0.2824  0.8751
 4730SOL     OW15630   0.048   7.006  11.088  0.0318 -0.4595 -0.0753
 4730SOL    HW115631  -0.022   7.019  11.153  0.4973  0.1226  0.3204
 4730SOL    HW215632   0.011   7.038  11.006  0.4388  1.5592  0.4815
 4731SOL     OW15633   2.097   0.975   0.638  0.4738 -0.2232  0.1362
 4731SOL    HW115634   2.051   0.892   0.624  0.1398 -0.3586  1.8055
 4731SOL    HW215635   2.185   0.960   0.603  0.0836 -0.8956 -0.5892
 4732SOL     OW15636   2.362   0.429   5.939  0.5636  0.0554 -0.2480
 4732SOL    HW115637   2.271   0.425   5.910 -0.7328  1.2710  3.2145
 4732SOL    HW215638   2.402   0.496   5.883 -1.4218  1.4511 -0.0786
 4733SOL     OW15639   1.354   3.221   5.696 -0.1272  0.3946  0.7370
 4733SOL    HW115640   1.428   3.241   5.639 -0.9161 -1.3392 -1.0096
 4733SOL    HW215641   1.315   3.307   5.715 -0.4517  1.0301 -2.2685
 4734SOL     OW15642   5.096   5.123  10.067 -0.2131 -0.4792 -0.7954
 4734SOL    HW115643   5.085   5.038  10.110  1.6172 -0.1589  0.4217
 4734SOL    HW215644   5.101   5.102   9.974 -0.0388 -1.6651 -0.5341
 4735SOL     OW15645   3.950   2.651   1.887 -0.0041 -0.7905  0.0229
 4735SOL    HW115646   4.006   2.587   1.843  1.6610  0.6001 -0.0136
 4735SOL    HW215647   3.906   2.697   1.815 -0.1728 -0.9931 -0.0053
 4736SOL     OW15648   0.712   6.090   4.696 -0.1205  0.7736 -0.0259
 4736SOL    HW115649   0.674   6.176   4.680  0.2079  0.9578  0.1772
 4736SOL    HW215650   0.694   6.073   4.789 -1.0388  0.1944 -0.2957
 4737SOL     OW15651   4.613   1.844  11.753 -0.1288  0.0022 -0.1258
 4737SOL    HW115652   4.589   1.819  11.664  1.9272 -0.6277 -0.5628
 4737SOL    HW215653   4.605   1.939  11.755  0.8125  0.1199 -1.3165
 4738SOL     OW15654   4.151   0.723   8.591  0.2580  0.4268 -0.1198
 4738SOL    HW115655   4.188   0.659   8.653 -2.3096  1.1868  2.3761
 4738SOL    HW215656   4.199   0.804   8.608  1.3785  0.0032 -1.0977
 4739SOL     OW15657   1.439   4.883   4.359  0.0506  0.2128  0.3225
 4739SOL    HW115658   1.429   4.882   4.454 -0.7744  0.0007  0.2386
 4739SOL    HW215659   1.400   4.965   4.331 -3.3942 -1.4185 -0.1793
 4740SOL     OW15660   6.539   7.785   0.073 -0.3327  0.5494 -0.4949
 4740SOL    HW115661   6.485   7.763  -0.003 -0.4839 -0.1654 -0.1922
 4740SOL    HW215662   6.520   7.877   0.091 -2.6314 -0.0619  0.5595
 4741SOL     OW15663   1.486   2.565   0.007 -0.2353  0.3980 -0.0019
 4741SOL    HW115664   1.477   2.651  -0.034  2.0342  0.9406  0.5111
 4741SOL    HW215665   1.579   2.544  -0.003 -0.2281 -0.8009  2.1708
 4742SOL     OW15666   1.267   1.120   9.128 -0.4187 -0.1127 -0.0994
 4742SOL    HW115667   1.263   1.212   9.101  1.3202  0.8289  2.4431
 4742SOL    HW215668   1.345   1.087   9.084  0.1517  0.2658  0.6063
 4743SOL     OW15669   6.567   0.712   7.837 -0.7828  0.6451 -0.5528
 4743SOL    HW115670   6.632   0.763   7.886 -1.7982  1.6101 -0.1671
 4743SOL    HW215671   6.506   0.777   7.802 -2.0455 -0.2827 -0.1702
 4744SOL     OW15672   1.140   3.315   9.454  0.1760  0.3289  0.5990
 4744SOL    HW115673   1.093   3.398   9.449  0.6897  0.5443 -1.7813
 4744SOL    HW215674   1.212   3.324   9.393  0.8893 -1.4989  1.0987
 4745SOL     OW15675   3.038   6.839   5.059  0.1887  0.6511  0.7120
 4745SOL    HW115676   3.011   6.749   5.042  1.4505  0.6065 -1.4034
 4745SOL    HW215677   2.961   6.880   5.099 -0.3890 -1.3504  1.7840
 4746SOL     OW15678   6.309   7.368   2.665 -0.0987  0.1045  0.1932
 4746SOL    HW115679   6.369   7.294   2.654  0.3081  0.1053  2.0937
 4746SOL    HW215680   6.241   7.335   2.724  0.3508  1.3531  1.4669
 4747SOL     OW15681   3.848   0.514   3.028 -0.9941  0.1495 -0.6019
 4747SOL    HW115682   3.872   0.606   3.016 -0.9051  0.1140 -0.6972
 4747SOL    HW215683   3.931   0.467   3.020 -0.7178  0.2162  1.2608
 4748SOL     OW15684   6.811   7.901   6.583  1.0043  0.1001 -0.1327
 4748SOL    HW115685   6.881   7.929   6.524 -0.0090  0.4432 -1.2197
 4748SOL    HW215686   6.730   7.929   6.539  0.2273  1.1279  1.8121
 4749SOL     OW15687   7.396   0.671   2.443 -0.1991 -0.1254 -0.1303
 4749SOL    HW115688   7.364   0.717   2.520 -0.6795  2.2370 -1.6631
 4749SOL    HW215689   7.460   0.731   2.404 -0.0493 -1.2200 -1.6543
 4750SOL     OW15690   6.269   1.066   1.729 -0.1302  0.4388 -0.1669
 4750SOL    HW115691   6.297   1.026   1.812  1.9641  0.7075 -0.6732
 4750SOL    HW215692   6.255   0.992   1.671 -0.5490  0.2846  0.1276
 4751SOL     OW15693   3.552   3.927   0.044  0.3973 -0.0793 -0.3093
 4751SOL    HW115694   3.524   3.845   0.004 -3.4330  0.0819  1.5724
 4751SOL    HW215695   3.577   3.904   0.133  0.3975  0.6419 -0.1115
 4752SOL     OW15696   2.690   3.418   7.890 -0.5904  0.0782  0.1431
 4752SOL    HW115697   2.611   3.379   7.852 -1.0410 -0.6825  1.7321
 4752SOL    HW215698   2.750   3.344   7.900  0.4555  0.6928 -1.2666
 4753SOL     OW15699   4.045   3.821   2.430  0.2597  0.0621 -0.6493
 4753SOL    HW115700   4.103   3.897   2.437 -0.2141  0.3752  0.0409
 4753SOL    HW215701   4.064   3.784   2.345  0.2974  1.1313 -1.1237
 4754SOL     OW15702   7.672   2.230   2.213 -0.4822 -0.0005  0.4180
 4754SOL    HW115703   7.670   2.322   2.187 -0.7008 -0.2090 -0.3325
 4754SOL    HW215704   7.741   2.225   2.279  0.4128  0.4699 -0.4481
 4755SOL     OW15705   4.279   1.061  11.824  0.1886  0.0506  0.2824
 4755SOL    HW115706   4.300   0.969  11.838  0.4706  0.0556 -0.0964
 4755SOL    HW215707   4.312   1.080  11.736 -0.3933  0.3545  0.1263
 4756SOL     OW15708   6.141   6.315   6.993 -0.1410 -0.0596 -0.0909
 4756SOL    HW115709   6.134   6.272   7.079  0.0547 -0.6679 -0.3770
 4756SOL    HW215710   6.192   6.255   6.940  1.1116  1.0311 -0.1804
 4757SOL     OW15711   5.787   2.195   0.135 -0.0124  0.2515  0.0542
 4757SOL    HW115712   5.852   2.255   0.099  0.6957 -0.5599 -0.0650
 4757SOL    HW215713   5.721   2.186   0.066  1.0884 -0.9191 -0.8977
 4758SOL     OW15714   7.326   4.324  12.243  0.6077  0.6942 -0.0660
 4758SOL    HW115715   7.406   4.273  12.256 -0.4882 -0.8514  1.0494
 4758SOL    HW215716   7.354   4.401  12.194  2.5413 -0.4184 -0.8112
 4759SOL     OW15717   0.311   4.822   3.417 -0.2092  0.5428  0.0261
 4759SOL    HW115718   0.383   4.759   3.419 -0.3085  0.4075 -0.5477
 4759SOL    HW215719   0.323   4.874   3.496  0.1325  0.0919  0.2782
 4760SOL     OW15720   4.467   2.758   9.329 -0.3586 -0.4682 -0.3826
 4760SOL    HW115721   4.426   2.689   9.278 -0.6627 -0.3696 -0.2777
 4760SOL    HW215722   4.523   2.804   9.268 -0.9364 -0.1723 -0.7008
 4761SOL     OW15723   6.052   5.168   5.006 -0.0646  0.0721  0.1426
 4761SOL    HW115724   6.017   5.248   4.966  0.1184  0.2966  0.4298
 4761SOL    HW215725   5.975   5.112   5.020 -0.4133  0.8553  1.4482
 4762SOL     OW15726   2.874   1.688  11.563  0.1696  0.0446 -0.0924
 4762SOL    HW115727   2.877   1.611  11.620  0.1535  1.6531  2.2199
 4762SOL    HW215728   2.965   1.703  11.538  0.4569  0.3146  1.0216
 4763SOL     OW15729   0.725   5.375   2.812 -0.0987 -0.5066 -0.0983
 4763SOL    HW115730   0.805   5.349   2.766  0.2894  0.7780 -0.1845
 4763SOL    HW215731   0.660   5.386   2.743 -0.0515 -0.4711 -0.1367
 4764SOL     OW15732   3.920   6.119   7.276 -0.2008  0.1285  0.4441
 4764SOL    HW115733   3.826   6.132   7.262 -0.4570 -1.7100  0.1409
 4764SOL    HW215734   3.925   6.063   7.353  0.5089 -1.4062 -0.6531
 4765SOL     OW15735   0.385   7.624   7.030  0.3598 -0.5224 -0.2152
 4765SOL    HW115736   0.447   7.558   6.999  2.1556  0.2571  1.5078
 4765SOL    HW215737   0.435   7.706   7.030 -0.2483 -0.0706  2.3285
 4766SOL     OW15738   5.602   3.535   9.630  0.4774 -0.3819  0.2625
 4766SOL    HW115739   5.559   3.475   9.692 -0.7465  0.7126  0.5305
 4766SOL    HW215740   5.645   3.478   9.567 -0.0630 -1.5375  0.9061
 4767SOL     OW15741   0.433   6.650  10.371  0.5035 -0.4311 -0.2510
 4767SOL    HW115742   0.453   6.563  10.338  2.4079 -0.3483  0.5704
 4767SOL    HW215743   0.448   6.644  10.465  1.1706  0.8934 -0.2448
 4768SOL     OW15744   0.832   4.744  11.964  0.4424 -0.0335  0.3693
 4768SOL    HW115745   0.823   4.837  11.986 -1.1857 -0.2965  0.9712
 4768SOL    HW215746   0.808   4.698  12.044  1.8482 -1.0049  0.2710
 4769SOL     OW15747   3.811   1.953   2.855 -0.0786 -0.0979  0.2337
 4769SOL    HW115748   3.762   1.876   2.883 -1.1802  0.1268 -0.9618
 4769SOL    HW215749   3.892   1.951   2.906  0.0969 -2.2657 -0.0565
 4770SOL     OW15750   4.369   6.747   8.236  0.1669  0.3349  0.5162
 4770SOL    HW115751   4.277   6.729   8.218  0.7605 -0.5330 -2.1663
 4770SOL    HW215752   4.368   6.818   8.300 -2.3408  0.1810  0.7416
 4771SOL     OW15753   5.367   3.587   3.573 -0.0836  0.0400  0.3755
 4771SOL    HW115754   5.406   3.605   3.659  2.2216  0.4331 -0.6755
 4771SOL    HW215755   5.436   3.541   3.525 -1.0923  0.3812 -1.4746
 4772SOL     OW15756   7.755   4.358  10.343 -0.5449  0.5269  0.4694
 4772SOL    HW115757   7.770   4.310  10.261 -1.2033 -1.1730  1.2953
 4772SOL    HW215758   7.754   4.450  10.317 -0.3184  0.0533 -1.3633
 4773SOL     OW15759   4.629   3.967   2.368  0.0380  0.0419  0.2992
 4773SOL    HW115760   4.653   4.055   2.396 -0.4726 -0.2449  1.7196
 4773SOL    HW215761   4.613   3.919   2.450  0.7917 -1.5132 -0.4265
 4774SOL     OW15762   3.449   2.866   3.382 -0.2379  0.6454 -0.0676
 4774SOL    HW115763   3.494   2.795   3.336  0.8679  1.0681  0.3210
 4774SOL    HW215764   3.369   2.880   3.332  0.8293  0.9600 -1.7620
 4775SOL     OW15765   0.868   0.554   9.794 -0.2970 -0.6107 -0.9116
 4775SOL    HW115766   0.874   0.578   9.887 -1.3306 -2.5126 -0.3011
 4775SOL    HW215767   0.946   0.500   9.778 -0.6611 -1.1595 -0.8525
 4776SOL     OW15768   0.981   0.996   6.237 -0.1702 -0.3361  0.0801
 4776SOL    HW115769   1.050   0.969   6.176  0.5207  0.0716  0.6671
 4776SOL    HW215770   1.024   1.001   6.322 -0.7993  0.4163  0.3684
 4777SOL     OW15771   2.233   1.312  11.648 -0.4976 -0.7461 -0.3463
 4777SOL    HW115772   2.223   1.347  11.737 -3.4824 -1.8527 -0.1253
 4777SOL    HW215773   2.316   1.264  11.650 -0.5685 -0.8712  1.9169
 4778SOL     OW15774   6.070   6.395   8.227  0.7018  0.0847  0.5345
 4778SOL    HW115775   6.153   6.356   8.256  0.8726 -1.1828 -1.4525
 4778SOL    HW215776   6.088   6.429   8.140 -1.1419 -1.3248 -0.4696
 4779SOL     OW15777   1.209   3.155   4.765 -0.5514  0.1859 -0.3407
 4779SOL    HW115778   1.243   3.141   4.677 -1.4677 -1.1122 -0.5026
 4779SOL    HW215779   1.286   3.149   4.822  0.2448  2.2047 -1.1151
 4780SOL     OW15780   1.770   6.441   8.137  0.3915  0.6074  0.0572
 4780SOL    HW115781   1.851   6.431   8.186 -0.2042 -0.4080  0.8522
 4780SOL    HW215782   1.798   6.438   8.045  1.1446 -0.8064  0.3037
 4781SOL     OW15783   4.326   3.784   5.702  0.6669  0.1572  0.6652
 4781SOL    HW115784   4.421   3.783   5.703  0.7259 -0.3807 -1.3757
 4781SOL    HW215785   4.301   3.702   5.660 -0.6350  0.9867 -0.2641
 4782SOL     OW15786   1.091   6.301   8.303  0.0026  0.2047  0.0498
 4782SOL    HW115787   1.025   6.358   8.263 -0.1619  0.9850  1.3761
 4782SOL    HW215788   1.159   6.360   8.335 -0.0974 -0.3147  1.3218
 4783SOL     OW15789   6.875   7.031   4.971 -0.0150 -0.1226 -0.1366
 4783SOL    HW115790   6.915   6.947   4.995 -0.3043 -0.1638  0.2025
 4783SOL    HW215791   6.899   7.091   5.042 -2.0767 -0.6091  1.0492
 4784SOL     OW15792   3.230   1.008   2.903  0.1592 -0.0114 -0.0376
 4784SOL    HW115793   3.137   1.024   2.918 -0.2458 -1.3771 -0.9896
 4784SOL    HW215794   3.252   0.934   2.960  1.0970  1.3155  1.4243
 4785SOL     OW15795   1.674   4.024   4.223  0.3314 -0.1394 -0.1348
 4785SOL    HW115796   1.689   4.117   4.235 -3.4270  1.1767 -3.3559
 4785SOL    HW215797   1.726   4.000   4.146  1.7112 -0.9231  1.0014
 4786SOL     OW15798   4.795   2.009   0.954 -0.2885 -0.6413  0.3547
 4786SOL    HW115799   4.866   1.945   0.951  0.4675  0.1810  0.3006
 4786SOL    HW215800   4.829   2.081   1.007 -0.7313  0.1695 -0.4274
 4787SOL     OW15801   7.688   1.872   4.028  0.2166 -0.3569 -0.4245
 4787SOL    HW115802   7.748   1.825   3.970 -0.2408  0.4706 -1.6017
 4787SOL    HW215803   7.707   1.965   4.012  0.3210 -0.0915  1.0261
 4788SOL     OW15804   2.524   3.263   4.404 -0.1124 -0.1845  0.2361
 4788SOL    HW115805   2.436   3.295   4.386  0.0909 -0.1202 -0.6841
 4788SOL    HW215806   2.563   3.251   4.317  0.0438 -2.3065  0.5456
 4789SOL     OW15807   5.567   4.590  10.805  0.1001  0.4286 -0.3976
 4789SOL    HW115808   5.526   4.536  10.737  1.9174  1.1232 -2.1608
 4789SOL    HW215809   5.504   4.659  10.822 -0.9908 -0.5599 -0.3041
 4790SOL     OW15810   2.016   7.810   9.593 -0.0309  0.1342  0.6056
 4790SOL    HW115811   2.059   7.847   9.516  0.2225  1.7407  1.4836
 4790SOL    HW215812   1.932   7.855   9.598  0.5889  1.2090  2.1069
 4791SOL     OW15813   4.949   0.930   6.327 -0.4226 -0.4430  0.8791
 4791SOL    HW115814   4.881   0.929   6.260 -0.8699 -1.7764  1.3162
 4791SOL    HW215815   4.925   1.003   6.385 -0.9725 -0.3500  0.5380
 4792SOL     OW15816   7.074   0.829  10.700 -0.3188  0.0604  0.0375
 4792SOL    HW115817   7.030   0.786  10.773 -0.7011 -0.6243 -0.5823
 4792SOL    HW215818   7.132   0.894  10.741 -2.4680  1.5676  0.8546
 4793SOL     OW15819   7.247   7.621   4.822 -0.1993 -0.0621 -0.5270
 4793SOL    HW115820   7.237   7.541   4.771 -0.7019 -1.0332  1.0184
 4793SOL    HW215821   7.342   7.632   4.832 -0.1363 -1.0913  0.1484
 4794SOL     OW15822   1.341   3.729   8.668  0.1110 -0.3378  0.3580
 4794SOL    HW115823   1.296   3.804   8.630 -1.3454 -1.2748  0.1533
 4794SOL    HW215824   1.282   3.697   8.736  1.2412 -0.6157  1.2580
 4795SOL     OW15825   0.891   0.620   0.133 -0.5167 -0.7524 -0.6846
 4795SOL    HW115826   0.837   0.575   0.067  0.4004 -2.8943 -0.0470
 4795SOL    HW215827   0.889   0.712   0.106 -3.1314 -0.9912 -1.6059
 4796SOL     OW15828   6.140   2.160   1.709  0.1462  0.3554 -0.2863
 4796SOL    HW115829   6.133   2.166   1.614  0.5186 -0.7217 -0.3916
 4796SOL    HW215830   6.178   2.074   1.725  1.2264  0.9942  0.7872
 4797SOL     OW15831   2.561   3.470   0.881  0.5476 -0.1127 -0.2609
 4797SOL    HW115832   2.597   3.541   0.828 -0.2025  1.4012  1.1249
 4797SOL    HW215833   2.632   3.444   0.939  0.5628  0.1992 -0.1333
 4798SOL     OW15834   3.347   1.015   5.496 -0.5440 -0.0695  0.4695
 4798SOL    HW115835   3.301   1.084   5.543  0.6915  1.6048 -0.6508
 4798SOL    HW215836   3.429   1.004   5.544 -0.2306  0.0712 -0.0328
 4799SOL     OW15837   6.136   1.271  11.796 -0.2183 -0.0756  0.1395
 4799SOL    HW115838   6.127   1.348  11.852  1.4626  0.8864 -0.8310
 4799SOL    HW215839   6.095   1.200  11.846  1.5329  0.6199  2.8011
 4800SOL     OW15840   4.358   6.728  12.102  0.4649  0.1837 -0.2089
 4800SOL    HW115841   4.434   6.713  12.158  0.5481  0.6702 -0.1874
 4800SOL    HW215842   4.378   6.809  12.055  0.4896 -0.3151 -1.0958
 4801SOL     OW15843   2.260   4.014   2.683 -0.2465  0.4288 -0.0268
 4801SOL    HW115844   2.287   3.936   2.730  1.5730  0.1401 -1.4329
 4801SOL    HW215845   2.270   4.086   2.746  1.9824  0.0414  0.1294
 4802SOL     OW15846   2.915   0.984   5.199 -0.6217  0.3191  0.4747
 4802SOL    HW115847   2.896   0.895   5.230 -0.4977 -0.2034 -0.8725
 4802SOL    HW215848   2.844   1.002   5.137 -0.6594  1.1737  0.7659
 4803SOL     OW15849   3.704   5.983   4.815 -0.0318  0.0259 -0.0835
 4803SOL    HW115850   3.721   5.988   4.909  0.4892  0.8193 -0.2057
 4803SOL    HW215851   3.734   5.896   4.789  1.3214  0.3879  0.2074
 4804SOL     OW15852   4.987   2.854   2.899  0.4431 -0.1975  0.2402
 4804SOL    HW115853   5.064   2.905   2.876  0.6104 -0.6735 -0.2892
 4804SOL    HW215854   4.914   2.917   2.895  0.9117  0.4935  1.7526
 4805SOL     OW15855   6.315   1.550  11.629  0.3957 -0.2989  0.1165
 4805SOL    HW115856   6.357   1.537  11.714  1.5136  0.1471 -0.3483
 4805SOL    HW215857   6.343   1.474  11.577  0.1312 -0.3065 -0.0194
 4806SOL     OW15858   6.638   0.524   0.017  0.1225 -0.0934 -0.0426
 4806SOL    HW115859   6.701   0.576  -0.034 -1.0000  0.3402 -1.0312
 4806SOL    HW215860   6.643   0.560   0.105  2.0910 -0.8359  0.2043
 4807SOL     OW15861   1.409   7.103   8.157  0.9378  0.2637 -0.3131
 4807SOL    HW115862   1.457   7.023   8.139  0.5833 -0.1537  0.5736
 4807SOL    HW215863   1.455   7.144   8.230  0.7831  0.5844 -0.3919
 4808SOL     OW15864   1.507   5.092   5.958 -0.1243  0.1492  0.6159
 4808SOL    HW115865   1.456   5.046   6.025 -1.0624 -1.0079 -0.8061
 4808SOL    HW215866   1.500   5.035   5.881  2.9479  0.1949  0.2003
 4809SOL     OW15867   0.247   5.086   3.299  0.5579 -0.3361  0.5091
 4809SOL    HW115868   0.315   5.027   3.331  1.2371  0.2183  0.1208
 4809SOL    HW215869   0.294   5.149   3.245 -0.4251 -0.6565 -0.7647
 4810SOL     OW15870   0.068   2.474   0.512  0.1055  0.3621  0.4486
 4810SOL    HW115871   0.008   2.461   0.438  0.4147  2.1160 -0.1475
 4810SOL    HW215872   0.150   2.501   0.472  0.8674 -0.5256  1.3557
 4811SOL     OW15873   0.333   6.957   3.824  0.3099  0.0445 -0.1924
 4811SOL    HW115874   0.394   6.986   3.756  0.0829 -0.9886 -0.8760
 4811SOL    HW215875   0.346   6.862   3.828  0.3449  0.0840  1.2565
 4812SOL     OW15876   3.739   5.909   9.470 -0.0646  0.3283 -0.3671
 4812SOL    HW115877   3.736   5.843   9.539  0.5731 -0.8458 -1.4158
 4812SOL    HW215878   3.703   5.988   9.511  1.9363  0.1999  1.8476
 4813SOL     OW15879   6.357   0.547   9.421 -0.4519 -0.2574 -0.4252
 4813SOL    HW115880   6.263   0.542   9.436 -0.3829  0.3746  0.2784
 4813SOL    HW215881   6.383   0.456   9.407 -1.6714 -0.1622 -4.1707
 4814SOL     OW15882   7.316   7.000   1.837 -0.7064  0.2202 -0.2336
 4814SOL    HW115883   7.396   6.970   1.879 -1.2341  0.6045  1.1016
 4814SOL    HW215884   7.330   7.094   1.822 -1.0067  0.3521  0.2771
 4815SOL     OW15885   6.664   5.475  10.583 -0.3645 -0.3419  0.0727
 4815SOL    HW115886   6.614   5.498  10.662 -1.5037  1.2482 -1.0582
 4815SOL    HW215887   6.679   5.558  10.539  0.0755 -1.2173 -1.5004
 4816SOL     OW15888   5.529   1.887  11.278 -0.1850  0.3077 -0.6792
 4816SOL    HW115889   5.584   1.903  11.201 -0.3028  0.7352 -0.6792
 4816SOL    HW215890   5.552   1.799  11.306  1.6329  1.0329  0.2584
 4817SOL     OW15891   6.267   6.002   5.108  0.0518 -0.1664 -0.1474
 4817SOL    HW115892   6.255   6.097   5.116  1.4069  0.0382 -0.3133
 4817SOL    HW215893   6.356   5.986   5.140  0.2436 -1.2310 -1.1271
 4818SOL     OW15894   2.211   2.375   9.949  0.1335  0.0535 -0.8044
 4818SOL    HW115895   2.195   2.445  10.012  1.6638  0.6782 -1.0654
 4818SOL    HW215896   2.275   2.319   9.993  1.9330  0.9967 -2.1041
 4819SOL     OW15897   6.697   5.209   2.942  0.0848 -0.2712  0.7142
 4819SOL    HW115898   6.628   5.268   2.911  1.1046  2.6018  3.4343
 4819SOL    HW215899   6.777   5.242   2.901  0.5850 -0.2388  1.7010
 4820SOL     OW15900   4.257   7.694   0.664  0.3133  0.4106 -0.2062
 4820SOL    HW115901   4.167   7.717   0.642 -0.9797  0.2901  4.0257
 4820SOL    HW215902   4.302   7.778   0.671  0.2879  0.5316 -1.3150
 4821SOL     OW15903   4.876   3.500  10.569  0.4347 -0.2882 -0.2619
 4821SOL    HW115904   4.950   3.537  10.618  0.4268 -1.1847  0.4445
 4821SOL    HW215905   4.843   3.430  10.625 -0.4520 -0.4226 -0.9393
 4822SOL     OW15906   3.131   7.440  12.155 -0.1304  0.1152 -0.4463
 4822SOL    HW115907   3.066   7.509  12.169 -0.2579 -0.1510  0.3314
 4822SOL    HW215908   3.179   7.435  12.237  1.1440  0.5664 -1.1455
 4823SOL     OW15909   3.981   5.538   8.724  0.2129  0.1793  0.2476
 4823SOL    HW115910   4.069   5.541   8.686  0.0946  0.1059 -0.0340
 4823SOL    HW215911   3.996   5.543   8.818  0.4765  1.0135  0.1719
 4824SOL     OW15912   6.430   1.144   9.808  0.8493 -0.1888  0.0808
 4824SOL    HW115913   6.343   1.146   9.849  0.0199  0.9643 -1.6197
 4824SOL    HW215914   6.414   1.108   9.721  1.8638  1.1230 -0.6784
 4825SOL     OW15915   4.362   1.020   5.092  0.3282 -0.4678  0.4445
 4825SOL    HW115916   4.295   1.085   5.069  0.8414 -0.5125 -1.2932
 4825SOL    HW215917   4.442   1.053   5.052  0.1315 -3.3498 -2.8180
 4826SOL     OW15918   4.473   3.977   8.960 -0.6685 -0.0558 -0.4997
 4826SOL    HW115919   4.439   3.970   8.871  0.2420  1.6794 -1.0097
 4826SOL    HW215920   4.556   3.928   8.958 -1.1506 -0.9146 -0.2913
 4827SOL     OW15921   2.651   7.525   4.070  0.3130  0.9986 -0.5635
 4827SOL    HW115922   2.743   7.528   4.046  0.2957  0.7051 -0.6762
 4827SOL    HW215923   2.627   7.432   4.060 -0.1282  1.1600 -1.0617
 4828SOL     OW15924   4.750   3.058  10.346 -0.2001  0.1306  0.0408
 4828SOL    HW115925   4.706   3.002  10.410 -1.4811  1.8280  0.7215
 4828SOL    HW215926   4.740   3.147  10.381  1.1418  0.8763 -1.3530
 4829SOL     OW15927   0.722   4.524   7.179 -0.4247 -0.6152  0.3334
 4829SOL    HW115928   0.724   4.464   7.255 -0.2694 -0.6543  0.3006
 4829SOL    HW215929   0.813   4.524   7.148 -0.0205  1.0316  1.4214
 4830SOL     OW15930   0.040   0.958  12.071  0.4627 -0.0221 -0.0460
 4830SOL    HW115931   0.017   1.018  12.000  1.1717  0.7223  0.3369
 4830SOL    HW215932   0.031   1.010  12.150  2.0891 -0.0926  0.2184
 4831SOL     OW15933   6.868   4.314   4.002 -0.5618 -0.1122 -0.4306
 4831SOL    HW115934   6.859   4.220   4.020  0.2698  0.1617  1.7069
 4831SOL    HW215935   6.932   4.344   4.066 -1.1509  2.0148 -0.7801
 4832SOL     OW15936   6.178   4.414   9.658  0.1392  0.0919 -0.7065
 4832SOL    HW115937   6.182   4.434   9.751  1.2262 -0.7205 -0.5645
 4832SOL    HW215938   6.120   4.482   9.622 -0.1296  0.5408  0.5081
 4833SOL     OW15939   3.755   3.802   2.569  0.1296  0.0837 -0.3031
 4833SOL    HW115940   3.749   3.893   2.599  1.1769  0.1973 -0.4173
 4833SOL    HW215941   3.689   3.796   2.500 -0.4186  0.5663  0.1607
 4834SOL     OW15942   3.131   7.074   2.980 -0.2197  0.0063  0.0230
 4834SOL    HW115943   3.123   7.112   2.893  1.1634  1.0251  0.3092
 4834SOL    HW215944   3.059   7.113   3.030 -0.3428  0.2826 -0.3624
 4835SOL     OW15945   5.181   1.561   6.262 -0.2600 -0.0987  0.0285
 4835SOL    HW115946   5.212   1.610   6.339  0.1585  1.6072 -1.1673
 4835SOL    HW215947   5.133   1.487   6.299  1.8964 -0.6500  1.9349
 4836SOL     OW15948   1.090   5.725   8.523  0.1391 -0.1966  0.5432
 4836SOL    HW115949   1.097   5.661   8.451  0.2147 -0.3970  0.7263
 4836SOL    HW215950   1.175   5.769   8.524  0.4748 -0.8266  1.0922
 4837SOL     OW15951   4.347   3.962  11.314  0.1282  0.7627  0.2412
 4837SOL    HW115952   4.367   3.876  11.276 -0.4224  0.9019 -0.3698
 4837SOL    HW215953   4.256   3.979  11.290  0.2080  1.4859  0.4249
 4838SOL     OW15954   5.702   6.637   0.595  0.0481 -0.1291  0.2731
 4838SOL    HW115955   5.740   6.571   0.538 -0.6196  0.6005 -1.0782
 4838SOL    HW215956   5.714   6.603   0.683  2.7738 -0.4579 -0.1529
 4839SOL     OW15957   2.299   1.434  11.894  0.2090 -0.2862 -0.1393
 4839SOL    HW115958   2.342   1.374  11.955  1.6276 -0.5799 -1.3819
 4839SOL    HW215959   2.359   1.508  11.886 -0.0170 -0.1884 -1.0732
 4840SOL     OW15960   7.399   6.890   1.080 -0.8987  0.0389 -0.6717
 4840SOL    HW115961   7.409   6.960   1.015  1.3233 -0.8625 -1.4012
 4840SOL    HW215962   7.319   6.845   1.053  0.5863 -1.1099 -3.7447
 4841SOL     OW15963   0.420   6.737   0.142 -0.1219  0.4213 -0.2188
 4841SOL    HW115964   0.434   6.643   0.130  0.4269  0.5749 -0.8660
 4841SOL    HW215965   0.394   6.769   0.056  0.7784  1.0419 -0.2757
 4842SOL     OW15966   2.894   5.108   8.963 -0.1247 -0.1936 -0.0596
 4842SOL    HW115967   2.964   5.064   8.915  0.8229  1.4339 -0.2406
 4842SOL    HW215968   2.939   5.172   9.019 -1.3913 -0.0354  0.8380
 4843SOL     OW15969   5.131   3.513  11.570  0.5185 -0.0296  0.2709
 4843SOL    HW115970   5.160   3.508  11.661  0.1002 -1.2822  0.3550
 4843SOL    HW215971   5.171   3.437  11.528 -0.2229 -0.1145 -0.3077
 4844SOL     OW15972   5.568   0.575   5.214  0.0196 -0.1512 -0.8689
 4844SOL    HW115973   5.603   0.491   5.243 -0.7795 -0.2142 -0.0273
 4844SOL    HW215974   5.473   0.563   5.216 -0.0847  0.5050 -1.5705
 4845SOL     OW15975   4.774   2.371  11.489 -0.2511  0.1463  0.0860
 4845SOL    HW115976   4.820   2.436  11.542 -0.2713  0.1641  0.0816
 4845SOL    HW215977   4.706   2.338  11.547  0.4275 -0.6384  0.4610
 4846SOL     OW15978   7.472   7.514   8.343 -0.0354  0.5801 -0.0950
 4846SOL    HW115979   7.402   7.499   8.407  0.6290  0.8457  0.7084
 4846SOL    HW215980   7.452   7.600   8.307  0.1544  0.8818  0.5058
 4847SOL     OW15981   0.136   3.209   4.757 -0.2787  0.3055 -0.2032
 4847SOL    HW115982   0.214   3.240   4.711 -1.7100  3.5032 -0.7641
 4847SOL    HW215983   0.071   3.198   4.688 -0.6625 -1.3988  0.3777
 4848SOL     OW15984   2.371   6.454   1.078  0.4676  0.2606 -0.5657
 4848SOL    HW115985   2.292   6.505   1.093  0.7400  0.2750  1.0370
 4848SOL    HW215986   2.364   6.423   0.987 -0.9147  1.0187 -0.7332
 4849SOL     OW15987   0.376   3.383   3.344 -0.2415 -0.5599  0.0859
 4849SOL    HW115988   0.456   3.332   3.352  0.4160  0.5336  0.6864
 4849SOL    HW215989   0.406   3.473   3.332 -1.3644  0.0118  1.3190
 4850SOL     OW15990   3.158   5.424   5.255  0.2923 -0.1250  0.2316
 4850SOL    HW115991   3.160   5.329   5.254 -0.9624 -0.1858 -1.9116
 4850SOL    HW215992   3.066   5.447   5.242  0.8779  1.3051 -2.1911
 4851SOL     OW15993   0.988   5.647   3.875 -0.3445  0.1446 -0.0857
 4851SOL    HW115994   0.927   5.701   3.925  1.5010  2.5831 -0.2590
 4851SOL    HW215995   0.975   5.674   3.784 -0.2154 -0.6050 -0.3314
 4852SOL     OW15996   5.227   0.418   4.404  0.1292 -0.0327 -0.2294
 4852SOL    HW115997   5.155   0.439   4.346 -1.7638  0.7091  2.2425
 4852SOL    HW215998   5.195   0.344   4.456  0.9409  0.5940  1.2178
 4853SOL     OW15999   2.678   6.367  10.780 -0.3455 -0.0568 -0.1844
 4853SOL    HW116000   2.709   6.300  10.841  1.2459  0.7798 -0.0328
 4853SOL    HW216001   2.727   6.445  10.803 -1.7711  1.0445 -0.7204
 4854SOL     OW16002   2.828   5.643   6.030 -0.3661  0.6978 -0.7045
 4854SOL    HW116003   2.796   5.558   6.000  2.3659 -0.4254 -0.8059
 4854SOL    HW216004   2.791   5.706   5.968 -1.8699 -0.4875 -1.0668
 4855SOL     OW16005   6.939   4.309   1.129 -0.0234 -0.0942 -0.1876
 4855SOL    HW116006   6.989   4.345   1.202  0.7671 -0.0918 -0.7240
 4855SOL    HW216007   6.863   4.367   1.122 -0.3880 -0.4065  0.9609
 4856SOL     OW16008   2.017   3.249   4.954 -0.1182  0.2982  0.3662
 4856SOL    HW116009   1.931   3.292   4.946 -0.0589  0.1653 -1.6590
 4856SOL    HW216010   2.078   3.311   4.915  0.3159 -0.6354 -0.4811
 4857SOL     OW16011   0.054   6.923   7.817 -0.0425  0.3310  0.2293
 4857SOL    HW116012   0.114   6.976   7.870 -0.1370  0.7557 -0.0810
 4857SOL    HW216013   0.020   6.984   7.752 -1.9147  0.4724  1.2754
 4858SOL     OW16014   2.220   1.330   0.170  0.1099 -0.3021 -0.1028
 4858SOL    HW116015   2.214   1.351   0.263 -1.9028 -0.3733 -0.1710
 4858SOL    HW216016   2.179   1.244   0.162  0.3673 -0.3458 -1.0444
 4859SOL     OW16017   7.904   7.267   5.720 -0.7613 -0.0396  0.1485
 4859SOL    HW116018   7.932   7.323   5.793  2.0997 -1.3980  0.2308
 4859SOL    HW216019   7.916   7.178   5.753 -2.3616 -0.7243 -0.9925
 4860SOL     OW16020   1.241   5.470   2.820  0.0669  0.1597 -0.2394
 4860SOL    HW116021   1.290   5.551   2.804 -0.8865  0.3896 -2.3151
 4860SOL    HW216022   1.293   5.401   2.779 -0.4894  0.1653 -0.9846
 4861SOL     OW16023   1.404   3.923   6.405 -1.1163  0.8722  0.5686
 4861SOL    HW116024   1.439   3.903   6.318  0.7011 -0.2263  1.4858
 4861SOL    HW216025   1.457   3.996   6.436 -0.9180  0.4653  1.2136
 4862SOL     OW16026   5.721   4.532   6.746  0.1454 -0.1488 -0.6441
 4862SOL    HW116027   5.750   4.623   6.743  0.0318 -0.1231 -0.9656
 4862SOL    HW216028   5.724   4.509   6.839 -2.2812  0.9937 -0.1963
 4863SOL     OW16029   0.132   1.191   0.851 -0.3019  0.1522 -0.7625
 4863SOL    HW116030   0.189   1.115   0.843  0.1533  0.4976 -0.8133
 4863SOL    HW216031   0.075   1.187   0.774 -0.3564 -0.1968 -0.7059
 4864SOL     OW16032   4.106   5.617  11.091  0.3913 -0.7120  0.1412
 4864SOL    HW116033   4.016   5.593  11.068  0.2857  0.8328 -1.2721
 4864SOL    HW216034   4.151   5.620  11.006  0.8074  2.2211  0.3887
 4865SOL     OW16035   7.261   3.493   4.180 -0.0757  0.4175 -0.2083
 4865SOL    HW116036   7.220   3.554   4.118 -0.4726  1.5562  1.1170
 4865SOL    HW216037   7.289   3.549   4.253 -1.5100 -1.0910  1.5933
 4866SOL     OW16038   3.308   7.003   7.343  0.1020 -0.0964  0.3321
 4866SOL    HW116039   3.222   6.991   7.382  0.7225 -1.3771  1.3898
 4866SOL    HW216040   3.294   7.064   7.270 -1.5859  0.1110  0.8058
 4867SOL     OW16041   2.506   1.207  11.543  0.0140 -0.0520 -0.0511
 4867SOL    HW116042   2.594   1.241  11.557  0.5276 -0.8091 -1.3743
 4867SOL    HW216043   2.517   1.113  11.535 -0.7262 -0.0285 -1.6365
 4868SOL     OW16044   1.351   0.655  10.170 -0.2406  0.6810 -0.2824
 4868SOL    HW116045   1.443   0.636  10.153 -0.6900 -1.1191 -0.9767
 4868SOL    HW216046   1.337   0.624  10.260 -0.3324  0.2727 -0.4359
 4869SOL     OW16047   0.902   5.462   0.097 -0.3592  0.5717 -0.0118
 4869SOL    HW116048   0.809   5.454   0.121  0.0280 -1.6637  0.9956
 4869SOL    HW216049   0.935   5.530   0.156 -1.3007  1.2346 -0.2265
 4870SOL     OW16050   5.704   1.776   7.944  0.1516  0.4516  0.8224
 4870SOL    HW116051   5.757   1.715   7.996 -0.0378 -0.7128 -0.3003
 4870SOL    HW216052   5.768   1.838   7.908  0.5165  0.1083  0.8783
 4871SOL     OW16053   1.484   0.797   0.626 -0.4695  0.3412 -0.1681
 4871SOL    HW116054   1.389   0.803   0.638 -0.3471  1.2484  0.4085
 4871SOL    HW216055   1.512   0.732   0.690 -0.7927 -0.5715 -0.9204
 4872SOL     OW16056   4.719   3.923   0.688 -0.0687  0.4871 -0.2162
 4872SOL    HW116057   4.798   3.973   0.706  0.7504 -0.9416  0.3865
 4872SOL    HW216058   4.734   3.886   0.601 -0.1380  0.3395 -0.1659
 4873SOL     OW16059   5.654   7.424   6.401  0.3205 -0.3864  0.2520
 4873SOL    HW116060   5.646   7.405   6.307  2.0787 -1.1291  0.2131
 4873SOL    HW216061   5.671   7.518   6.405  1.1617 -0.5031 -0.2624
 4874SOL     OW16062   2.286   7.112   6.178 -0.0730  0.1991 -0.2531
 4874SOL    HW116063   2.274   7.132   6.271  0.2909 -0.7667  0.0108
 4874SOL    HW216064   2.372   7.148   6.157 -0.2221  0.5560 -0.2592
 4875SOL     OW16065   2.126   2.932   2.947 -0.1612  0.2597  0.1015
 4875SOL    HW116066   2.140   3.018   2.987  0.7040 -0.2859  1.0339
 4875SOL    HW216067   2.214   2.897   2.934 -0.4277  0.1806 -1.8440
 4876SOL     OW16068   0.018   4.079   5.531  0.1590 -0.0136 -0.2115
 4876SOL    HW116069  -0.048   4.081   5.600 -0.6270  0.9558 -0.9577
 4876SOL    HW216070   0.062   4.164   5.537 -0.9672  0.7318 -1.8524
 4877SOL     OW16071   3.720   6.381  10.883 -0.3215 -0.4434 -0.4886
 4877SOL    HW116072   3.642   6.436  10.892 -1.2005 -1.6842 -0.2592
 4877SOL    HW216073   3.767   6.418  10.809 -0.0166  1.6203  0.6440
 4878SOL     OW16074   5.533   7.481   0.748  0.1178  0.1795  0.6215
 4878SOL    HW116075   5.588   7.480   0.827 -0.8782 -0.5367  1.3243
 4878SOL    HW216076   5.503   7.390   0.739 -2.4199  0.8793  1.3275
 4879SOL     OW16077   5.696   7.468   5.501  0.0672  0.1458  0.5641
 4879SOL    HW116078   5.733   7.384   5.474 -2.1009 -1.1509  1.3826
 4879SOL    HW216079   5.760   7.533   5.472  0.6070 -1.5597 -2.4165
 4880SOL     OW16080   0.082   0.765   5.245  0.3104 -0.0469 -0.0856
 4880SOL    HW116081   0.140   0.722   5.308  0.6662 -2.1360 -1.7002
 4880SOL    HW216082  -0.006   0.745   5.276  0.4269  1.5276  1.3500
 4881SOL     OW16083   0.506   6.642   2.176  0.2829 -0.6275 -0.3779
 4881SOL    HW116084   0.596   6.674   2.173 -0.1722  0.7763 -0.0780
 4881SOL    HW216085   0.510   6.552   2.144  1.5909 -0.1377 -1.6732
 4882SOL     OW16086   5.655   2.950   5.166  0.6289  0.5927 -0.3128
 4882SOL    HW116087   5.639   2.871   5.114  1.9090 -0.0205  0.1771
 4882SOL    HW216088   5.590   2.946   5.236 -0.8152  1.1916 -1.5305
 4883SOL     OW16089   1.398   6.208   2.231 -0.4216 -0.4129  0.0261
 4883SOL    HW116090   1.462   6.205   2.160  0.0339 -1.7156  0.4626
 4883SOL    HW216091   1.407   6.296   2.267  0.4828 -0.2719 -0.5076
 4884SOL     OW16092   6.449   5.365   8.344  0.3029  0.2600  0.0435
 4884SOL    HW116093   6.469   5.313   8.266 -1.1318 -1.2399  0.6133
 4884SOL    HW216094   6.414   5.448   8.309  0.9024  0.1338 -0.8911
 4885SOL     OW16095   5.090   5.566  12.348  0.3013  0.5701  0.1350
 4885SOL    HW116096   5.103   5.471  12.353 -1.3861  0.3314  0.3228
 4885SOL    HW216097   4.997   5.579  12.362  0.3553  2.2104 -0.7526
 4886SOL     OW16098   4.369   6.429   4.780  0.5386  0.0770 -0.3230
 4886SOL    HW116099   4.410   6.412   4.865  0.3709 -0.2699 -0.3113
 4886SOL    HW216100   4.334   6.345   4.753 -1.8507  0.7354  0.5295
 4887SOL     OW16101   0.584   2.024  12.116  0.3423  0.0792 -0.4076
 4887SOL    HW116102   0.555   2.115  12.121  2.4533  0.7979 -0.5154
 4887SOL    HW216103   0.522   1.977  12.172 -1.0686  1.4828 -0.7100
 4888SOL     OW16104   4.047   0.044   6.120  0.2698  0.0035  0.4763
 4888SOL    HW116105   4.113   0.064   6.186 -0.5635  0.7270  1.1142
 4888SOL    HW216106   3.997  -0.028   6.157 -0.1977  0.4087  0.6400
 4889SOL     OW16107   1.246   0.717   1.749 -0.2757 -0.1589  0.2323
 4889SOL    HW116108   1.201   0.657   1.809 -0.5290 -0.8453 -0.6223
 4889SOL    HW216109   1.326   0.670   1.724  0.9642  1.0472  1.7338
 4890SOL     OW16110   4.788   1.373   4.314  0.5054 -0.3378 -0.0361
 4890SOL    HW116111   4.809   1.280   4.313  1.2640 -0.2096 -2.9119
 4890SOL    HW216112   4.847   1.412   4.250 -0.7385  1.9261  0.0923
 4891SOL     OW16113   0.192   3.907   2.918 -0.0215  0.4625  0.2385
 4891SOL    HW116114   0.238   3.829   2.949  0.5890  0.1939 -1.2323
 4891SOL    HW216115   0.233   3.980   2.964  0.4501  0.0466  0.4834
 4892SOL     OW16116   3.972   3.046   6.074 -0.1589  0.0158  0.3754
 4892SOL    HW116117   4.051   3.084   6.035 -0.8657 -0.9873 -2.2787
 4892SOL    HW216118   3.969   2.957   6.038 -1.9052 -0.3524  1.3375
 4893SOL     OW16119   4.866   5.540   0.453 -0.5173  0.1879 -0.1529
 4893SOL    HW116120   4.847   5.568   0.363 -0.2871 -0.8211 -0.5294
 4893SOL    HW216121   4.849   5.617   0.506 -1.2322  0.6290 -0.9973
 4894SOL     OW16122   3.619   1.380   4.999  0.0002 -0.0528  0.0360
 4894SOL    HW116123   3.654   1.396   5.086  1.3157  0.7308 -0.5983
 4894SOL    HW216124   3.634   1.287   4.983  1.0988  0.0965  0.1034
 4895SOL     OW16125   3.888   3.099   1.645 -0.3768 -0.1552  0.0263
 4895SOL    HW116126   3.896   3.004   1.649 -1.4077 -0.2049  2.3532
 4895SOL    HW216127   3.847   3.116   1.561  0.0645 -1.7285 -0.5442
 4896SOL     OW16128   3.337   7.362   9.810 -0.1909 -0.0787 -0.2480
 4896SOL    HW116129   3.266   7.297   9.807 -0.7301  0.5175 -0.6738
 4896SOL    HW216130   3.293   7.446   9.806  0.4745  0.3463  0.9110
 4897SOL     OW16131   3.603   7.018   9.360  0.3649 -0.1650 -0.2643
 4897SOL    HW116132   3.649   7.046   9.439  0.1496 -0.0180 -0.1919
 4897SOL    HW216133   3.673   6.990   9.300  0.4979 -0.8904  0.2140
 4898SOL     OW16134   5.869   3.842   6.566  0.3312 -0.0676 -0.0285
 4898SOL    HW116135   5.852   3.928   6.526  1.4994  0.3522  0.3363
 4898SOL    HW216136   5.811   3.839   6.641 -1.6137 -0.6993 -1.4693
 4899SOL     OW16137   2.090   5.637  10.327  0.3677  0.0714 -0.0793
 4899SOL    HW116138   2.130   5.674  10.249  3.5526 -0.0692  1.3196
 4899SOL    HW216139   2.124   5.691  10.399 -1.4323 -0.5809  1.3327
 4900SOL     OW16140   2.907   1.936  11.032  0.0982 -0.5776  0.3675
 4900SOL    HW116141   2.917   1.841  11.022  1.4765 -0.5959  1.6204
 4900SOL    HW216142   2.891   1.967  10.943 -1.6365 -2.1018  0.0884
 4901SOL     OW16143   4.316   5.295   7.549 -0.3088  0.5806 -0.3016
 4901SOL    HW116144   4.286   5.213   7.511 -0.4512  0.0663  0.8892
 4901SOL    HW216145   4.238   5.351   7.550 -0.4879  0.3265 -0.0523
 4902SOL     OW16146   5.149   1.613   8.013  0.1584  0.0847 -0.4050
 4902SOL    HW116147   5.182   1.627   7.924  0.9213  1.5673  0.0835
 4902SOL    HW216148   5.228   1.605   8.066 -0.2942 -1.3695  0.0720
 4903SOL     OW16149   1.608   5.106   1.933  0.0580  0.2507 -0.0401
 4903SOL    HW116150   1.648   5.096   1.847 -0.3060  1.2168 -0.3294
 4903SOL    HW216151   1.652   5.182   1.971  0.2282 -0.1760  0.6472
 4904SOL     OW16152   0.770   2.450   2.087 -0.4362 -0.0813 -0.8385
 4904SOL    HW116153   0.721   2.381   2.130  0.7468 -1.2393 -1.2872
 4904SOL    HW216154   0.744   2.444   1.995  0.9318 -1.0813 -1.1818
 4905SOL     OW16155   3.504   2.413   0.168 -0.1251 -0.3363  0.2914
 4905SOL    HW116156   3.502   2.380   0.078  1.3440 -0.0229  0.1196
 4905SOL    HW216157   3.536   2.339   0.220  0.2963 -0.1112  0.3541
 4906SOL     OW16158   2.018   6.904   9.488  0.4690 -0.0860 -0.3240
 4906SOL    HW116159   2.036   6.844   9.560  0.2036 -0.1340 -0.2973
 4906SOL    HW216160   1.923   6.901   9.477  0.1515  2.0669  1.1992
 4907SOL     OW16161   5.916   7.629   8.998 -0.4092  0.6420 -0.7346
 4907SOL    HW116162   5.894   7.597   8.910  0.1258  0.2749 -0.7394
 4907SOL    HW216163   6.009   7.654   8.992  0.3957 -1.7718  0.3805
 4908SOL     OW16164   1.150   6.724   7.945 -0.1816 -0.3250 -0.3758
 4908SOL    HW116165   1.118   6.805   7.984  1.4562 -0.3480  1.1376
 4908SOL    HW216166   1.075   6.664   7.950 -1.0808  0.7372 -0.5498
 4909SOL     OW16167   1.358   2.115   9.713  0.4345  0.3353  0.0287
 4909SOL    HW116168   1.344   2.049   9.644  0.1603 -0.7120  1.0479
 4909SOL    HW216169   1.279   2.168   9.712 -0.3184 -0.7331  0.6259
 4910SOL     OW16170   1.785   6.253   1.122 -0.2141 -0.8438  0.2395
 4910SOL    HW116171   1.735   6.174   1.144  0.9405 -2.1009 -1.4134
 4910SOL    HW216172   1.742   6.287   1.043  1.2726 -1.7806 -1.0360
 4911SOL     OW16173   0.054   1.001  11.005 -0.2509 -0.0544 -0.8221
 4911SOL    HW116174  -0.028   0.995  11.054 -0.6462 -0.5916 -1.5270
 4911SOL    HW216175   0.086   0.911  11.000  1.0361  0.2867  0.4940
 4912SOL     OW16176   2.804   3.703   0.060  0.1374  0.5682  0.1860
 4912SOL    HW116177   2.867   3.639   0.093  3.7439  3.1458 -1.0699
 4912SOL    HW216178   2.798   3.769   0.130  2.6354  2.6540 -1.3719
 4913SOL     OW16179   4.196   3.616   7.444  0.1068  0.7026 -0.2979
 4913SOL    HW116180   4.112   3.661   7.437 -1.0638 -1.4702 -1.6777
 4913SOL    HW216181   4.248   3.651   7.372 -0.3665  0.7149 -0.6434
 4914SOL     OW16182   5.749   5.880   7.575  0.0395  0.2070 -0.0557
 4914SOL    HW116183   5.716   5.939   7.643 -0.0160  1.8160 -1.4211
 4914SOL    HW216184   5.790   5.938   7.511 -0.2129 -1.2350 -1.5775
 4915SOL     OW16185   2.809   7.028   1.285  0.7327  0.3967 -0.2121
 4915SOL    HW116186   2.721   7.018   1.247  0.5111  0.0872  0.3562
 4915SOL    HW216187   2.852   6.944   1.267  0.7592  0.3881 -0.1071
 4916SOL     OW16188   6.100   5.986  11.640 -0.3169  0.5360 -0.1291
 4916SOL    HW116189   6.087   5.899  11.603  0.8647 -0.4985  1.7754
 4916SOL    HW216190   6.015   6.030  11.626 -1.7171 -1.6793  0.8451
 4917SOL     OW16191   0.756   2.684  10.814  0.1090 -0.7508 -0.0447
 4917SOL    HW116192   0.674   2.671  10.863 -0.4792 -0.9815 -1.0436
 4917SOL    HW216193   0.812   2.733  10.873 -0.9885 -0.0273  0.4308
 4918SOL     OW16194   2.356   0.903   0.571 -0.1850  0.1717  0.2850
 4918SOL    HW116195   2.375   0.840   0.640  0.0685  0.6915  0.6973
 4918SOL    HW216196   2.440   0.947   0.555 -0.6288  1.2934  0.9081
 4919SOL     OW16197   7.708   6.185  11.332 -0.1628  0.0972 -1.0076
 4919SOL    HW116198   7.714   6.280  11.346  0.4344 -0.0220 -0.4297
 4919SOL    HW216199   7.767   6.167  11.259  1.2057 -0.0828  0.1078
 4920SOL     OW16200   6.551   2.461   9.514  0.0927 -0.2018  0.0492
 4920SOL    HW116201   6.526   2.527   9.579 -0.3190 -0.0486 -0.2611
 4920SOL    HW216202   6.645   2.472   9.503  0.0296  0.3093  0.0263
 4921SOL     OW16203   1.815   5.397   4.532  0.3757 -0.6826  0.7245
 4921SOL    HW116204   1.874   5.460   4.491  0.7574 -0.9852  0.7956
 4921SOL    HW216205   1.776   5.349   4.458  0.3019 -0.5544  0.6803
 4922SOL     OW16206   0.593   4.766   2.327  0.4717  0.4301  0.9135
 4922SOL    HW116207   0.550   4.771   2.241  0.4916 -0.7777  0.8106
 4922SOL    HW216208   0.555   4.838   2.377 -1.9021 -0.6780  0.8944
 4923SOL     OW16209   2.797   3.913  10.677  0.3467 -0.1356 -0.4832
 4923SOL    HW116210   2.818   3.821  10.657 -0.0602 -0.7301  1.5692
 4923SOL    HW216211   2.758   3.910  10.764  0.6882  2.0584 -0.2036
 4924SOL     OW16212   4.827   4.330  10.429 -0.4206 -0.3835 -0.2745
 4924SOL    HW116213   4.865   4.280  10.501  1.0290 -0.3287 -0.9630
 4924SOL    HW216214   4.897   4.390  10.401 -0.8301 -0.5956 -1.9057
 4925SOL     OW16215   1.351   0.872   9.935 -0.2711  0.1355  0.0052
 4925SOL    HW116216   1.309   0.956   9.954  0.3665  0.0926  1.8006
 4925SOL    HW216217   1.428   0.894   9.883  0.6371  0.8446  1.5949
 4926SOL     OW16218   1.821   1.110   2.299  0.2509  0.2185 -0.2926
 4926SOL    HW116219   1.796   1.026   2.263 -1.4727  0.0307  1.2297
 4926SOL    HW216220   1.811   1.100   2.394  2.4289  1.3883  0.1462
 4927SOL     OW16221   7.349   4.889   9.351  0.7724 -0.0563  0.0448
 4927SOL    HW116222   7.381   4.978   9.335 -2.5427  1.0814 -1.0799
 4927SOL    HW216223   7.337   4.885   9.446  1.2065  0.6055  0.1313
 4928SOL     OW16224   1.137   1.506  10.209  1.2667  0.0938  0.2907
 4928SOL    HW116225   1.215   1.534  10.257  1.9900  0.1501 -0.8627
 4928SOL    HW216226   1.154   1.414  10.189  1.4147  0.3146 -0.6503
 4929SOL     OW16227   2.676   0.892  12.103 -0.2638 -0.3591 -0.3797
 4929SOL    HW116228   2.604   0.937  12.148  0.0335 -0.1269 -0.1254
 4929SOL    HW216229   2.717   0.961  12.050  0.2932 -0.2812  0.1330
 4930SOL     OW16230   4.518   5.966   7.449 -0.2405  0.0520 -0.2931
 4930SOL    HW116231   4.548   5.958   7.359  0.1188 -1.6004 -0.0560
 4930SOL    HW216232   4.585   6.020   7.492  0.7411 -0.9509 -0.5247
 4931SOL     OW16233   0.472   5.109   0.044 -0.0589 -0.3865  0.0382
 4931SOL    HW116234   0.529   5.124   0.120  2.8708  0.3345 -2.1325
 4931SOL    HW216235   0.412   5.183   0.044  0.4512  0.0538  1.1313
 4932SOL     OW16236   6.809   2.647   7.348  0.0425 -0.4090 -0.2141
 4932SOL    HW116237   6.775   2.573   7.398 -0.4525 -0.3017 -0.3873
 4932SOL    HW216238   6.733   2.703   7.332  0.3376 -0.0552 -0.4212
 4933SOL     OW16239   0.693   3.204   7.579  0.0554  0.1236  0.1486
 4933SOL    HW116240   0.687   3.277   7.640  1.4104 -0.2428  0.7593
 4933SOL    HW216241   0.784   3.204   7.550  0.0703 -1.2538  0.0961
 4934SOL     OW16242   4.830   6.454   1.560  0.4137  0.4177  0.1451
 4934SOL    HW116243   4.784   6.505   1.493 -0.4392 -0.8185 -0.2482
 4934SOL    HW216244   4.801   6.364   1.545 -0.6059  0.2113  2.7921
 4935SOL     OW16245   0.002   0.716   9.955 -0.5877 -0.6571 -0.1603
 4935SOL    HW116246  -0.013   0.807   9.979  0.2506 -0.7051  0.5851
 4935SOL    HW216247  -0.030   0.666  10.030 -0.2844 -0.9340 -0.2169
 4936SOL     OW16248   6.912   1.023   9.731  0.2097 -0.5143  0.3717
 4936SOL    HW116249   6.917   1.116   9.753 -0.8192  0.0175 -1.3767
 4936SOL    HW216250   7.003   0.994   9.725  0.5433 -0.2141  3.0830
 4937SOL     OW16251   2.875   1.740   4.345  0.1962  0.3534 -0.5818
 4937SOL    HW116252   2.911   1.809   4.289 -0.6801  1.2917 -0.0232
 4937SOL    HW216253   2.859   1.667   4.285  0.9152  0.7111 -1.2319
 4938SOL     OW16254   1.586   7.788  11.901  0.1283 -0.6777 -0.2843
 4938SOL    HW116255   1.635   7.861  11.863 -0.2483 -0.0683  0.3619
 4938SOL    HW216256   1.583   7.808  11.995  0.4323 -1.7845 -0.0255
 4939SOL     OW16257   5.302   0.586  10.992  0.5418 -0.1529  0.2306
 4939SOL    HW116258   5.293   0.491  10.981 -1.6498  0.1258 -0.9246
 4939SOL    HW216259   5.341   0.616  10.910 -0.2939  0.1012 -0.0844
 4940SOL     OW16260   2.485   5.614   9.027 -0.2213 -0.6756  0.2037
 4940SOL    HW116261   2.412   5.667   8.996 -0.7597  0.0728  2.5498
 4940SOL    HW216262   2.506   5.555   8.954  0.5477  2.8107 -2.6546
 4941SOL     OW16263   2.528   2.790   0.793 -0.0048  0.3169  0.1331
 4941SOL    HW116264   2.573   2.864   0.834  1.8395  0.1261 -1.4448
 4941SOL    HW216265   2.586   2.762   0.723 -0.1659 -3.3084  1.2600
 4942SOL     OW16266   1.992   5.135   5.127  0.5339 -0.0651 -0.4971
 4942SOL    HW116267   1.960   5.130   5.037  0.7673 -0.5687 -0.5536
 4942SOL    HW216268   2.088   5.137   5.118  0.5461  1.9213 -0.3555
 4943SOL     OW16269   1.626   4.158   1.748  0.0930  0.2323  0.1330
 4943SOL    HW116270   1.533   4.147   1.729 -0.1443 -0.4967  1.5743
 4943SOL    HW216271   1.636   4.252   1.761 -0.1838  0.4673 -1.1420
 4944SOL     OW16272   3.856   5.912   2.979  0.3918 -0.5393 -0.3238
 4944SOL    HW116273   3.889   5.976   2.916 -0.2333  0.3176  0.1979
 4944SOL    HW216274   3.869   5.827   2.936  2.7811 -0.2286 -0.3523
 4945SOL     OW16275   0.085   4.935   8.668 -0.4614 -0.6941  0.6465
 4945SOL    HW116276   0.173   4.959   8.640 -0.9275 -2.0763 -2.4116
 4945SOL    HW216277   0.032   5.013   8.650 -0.0939 -0.2888  1.2990
 4946SOL     OW16278   7.560   5.089   8.246 -0.0800 -0.3452 -0.1228
 4946SOL    HW116279   7.557   5.086   8.150  0.0453  0.4606 -0.1588
 4946SOL    HW216280   7.607   5.009   8.271 -0.6481 -0.8719 -0.6943
 4947SOL     OW16281   4.817   4.638  10.158  0.6484 -0.1358  0.1287
 4947SOL    HW116282   4.821   4.608  10.067 -0.8145  3.0239 -1.1285
 4947SOL    HW216283   4.751   4.583  10.199 -1.4313  0.7321 -1.8458
 4948SOL     OW16284   3.493   1.540   5.814 -0.3215  0.4894  0.1898
 4948SOL    HW116285   3.399   1.555   5.815 -0.3187  0.4952  0.5202
 4948SOL    HW216286   3.516   1.525   5.906 -0.1622 -0.5633 -0.0147
 4949SOL     OW16287   6.338   7.057   7.446 -0.1500  0.2969  0.3564
 4949SOL    HW116288   6.396   6.994   7.405  0.3560  0.3023  1.0513
 4949SOL    HW216289   6.368   7.143   7.415 -1.1498  0.1983 -0.9866
 4950SOL     OW16290   6.656   0.741  12.043  0.1171  0.0135  0.0332
 4950SOL    HW116291   6.590   0.672  12.050 -0.7087  0.5331 -1.7682
 4950SOL    HW216292   6.728   0.713  12.100 -0.0369 -2.5197 -0.9037
 4951SOL     OW16293   1.886   4.261   5.873  0.0187 -0.1786 -0.0452
 4951SOL    HW116294   1.932   4.279   5.791  1.4586  1.0482  0.9746
 4951SOL    HW216295   1.955   4.234   5.934 -0.2114  3.1188  1.9489
 4952SOL     OW16296   1.479   4.621  11.801  0.2859  0.2438 -0.0871
 4952SOL    HW116297   1.448   4.699  11.755 -0.8799 -0.7849 -1.1431
 4952SOL    HW216298   1.419   4.611  11.874  0.7044  0.5780  0.3036
 4953SOL     OW16299   7.329   0.458   1.996 -0.3065  0.3797 -0.2042
 4953SOL    HW116300   7.376   0.447   1.913  0.1883 -1.0308  0.2442
 4953SOL    HW216301   7.378   0.525   2.043  0.9218 -0.6316 -0.0067
 4954SOL     OW16302   5.136   2.475   6.871  0.4115 -0.3536  0.0511
 4954SOL    HW116303   5.095   2.482   6.785 -0.7341 -0.0846  0.5967
 4954SOL    HW216304   5.163   2.564   6.893 -0.7500 -0.1188  0.6328
 4955SOL     OW16305   7.894   7.338   3.634 -0.4109  0.3006  0.1431
 4955SOL    HW116306   7.947   7.351   3.713 -1.4251 -0.7755  1.0366
 4955SOL    HW216307   7.958   7.314   3.566  0.3228 -0.4872  1.0738
 4956SOL     OW16308   1.114   7.734  12.345 -0.0220 -0.1040  0.7411
 4956SOL    HW116309   1.200   7.699  12.370 -0.6169 -0.4971  2.3692
 4956SOL    HW216310   1.128   7.828  12.336  1.0812 -0.4221 -1.3537
 4957SOL     OW16311   1.810   7.338  12.055  0.2192  0.5814  0.5913
 4957SOL    HW116312   1.728   7.387  12.065  0.2865  0.7597  0.2789
 4957SOL    HW216313   1.834   7.349  11.963 -0.7348 -1.5811  0.0347
 4958SOL     OW16314   3.244   7.744   2.724  0.6547  0.6762  0.2276
 4958SOL    HW116315   3.319   7.795   2.695 -0.5433  1.5049 -1.6005
 4958SOL    HW216316   3.220   7.782   2.808  1.7032  1.0079  0.3893
 4959SOL     OW16317   5.960   5.700   8.979  0.3897 -0.0268 -0.0083
 4959SOL    HW116318   5.902   5.633   9.015 -1.1335  1.3915  0.2855
 4959SOL    HW216319   6.019   5.722   9.052 -0.8239  0.7984  0.7607
 4960SOL     OW16320   2.508   1.655  11.930 -0.4124 -0.7219  0.1504
 4960SOL    HW116321   2.547   1.713  11.995 -0.3797 -0.3023 -0.2383
 4960SOL    HW216322   2.419   1.690  11.917 -0.1945 -0.3923 -0.5145
 4961SOL     OW16323   2.070   6.728   8.636 -0.2414 -0.2149 -0.0108
 4961SOL    HW116324   2.007   6.676   8.686 -1.2855  0.5040 -0.5501
 4961SOL    HW216325   2.137   6.664   8.609 -0.3159 -0.8481  1.2014
 4962SOL     OW16326   4.058   1.004   3.766  0.0989 -0.8373 -0.1562
 4962SOL    HW116327   4.092   1.060   3.696 -0.0650 -2.1718 -1.3559
 4962SOL    HW216328   3.975   0.971   3.731 -0.3903 -0.9029  1.0211
 4963SOL     OW16329   6.448   7.112   4.587  0.3948 -0.3042 -0.0684
 4963SOL    HW116330   6.494   7.105   4.671  1.8007 -2.4398 -0.9347
 4963SOL    HW216331   6.515   7.141   4.525  0.1919 -1.7805 -1.0307
 4964SOL     OW16332   6.457   0.541   8.134 -0.4058 -0.2203 -0.0757
 4964SOL    HW116333   6.516   0.617   8.136 -1.7373  0.8515  0.4332
 4964SOL    HW216334   6.419   0.541   8.047 -0.4138 -0.2941 -0.0727
 4965SOL     OW16335   4.613   1.264   8.775  0.2205  0.0044 -0.1910
 4965SOL    HW116336   4.695   1.218   8.756  0.7077  1.1581 -0.9454
 4965SOL    HW216337   4.611   1.338   8.715 -0.7631  0.7415  0.6960
 4966SOL     OW16338   2.061   2.327   2.811 -0.0956 -0.2996 -0.3263
 4966SOL    HW116339   2.058   2.296   2.721  1.6783  0.3037 -0.6393
 4966SOL    HW216340   2.111   2.260   2.858  0.0489 -0.0136 -0.0650
 4967SOL     OW16341   1.646   6.692   5.461  0.2296 -0.1462 -0.3629
 4967SOL    HW116342   1.614   6.778   5.432  2.1575  0.5743 -0.4583
 4967SOL    HW216343   1.579   6.662   5.522  0.6445  2.5443  1.6130
 4968SOL     OW16344   3.944   6.959   6.666  0.1906  0.2367  0.1206
 4968SOL    HW116345   3.984   6.931   6.584  0.5860  1.0743  0.0193
 4968SOL    HW216346   3.862   6.910   6.670  0.9907 -1.1489  0.1093
 4969SOL     OW16347   5.137   5.134   5.544  0.2404  0.3890  0.2742
 4969SOL    HW116348   5.137   5.102   5.634  1.1250 -1.0167 -0.1929
 4969SOL    HW216349   5.229   5.127   5.517 -0.4310 -1.9251 -1.6464
 4970SOL     OW16350   5.938   3.538   1.146 -0.0583  0.0807  0.4276
 4970SOL    HW116351   5.955   3.470   1.212  0.3083 -0.8076 -0.5508
 4970SOL    HW216352   5.903   3.489   1.071 -0.6584  1.0978  0.0331
 4971SOL     OW16353   2.261   0.695   7.115  0.3288 -0.2221  0.1580
 4971SOL    HW116354   2.241   0.648   7.035  0.0055 -1.6878  1.0618
 4971SOL    HW216355   2.311   0.771   7.086 -2.2699  0.9239 -1.6958
 4972SOL     OW16356   6.333   6.682  11.200 -0.0283  0.1283  0.1500
 4972SOL    HW116357   6.411   6.646  11.242  0.3946  0.7231 -0.1096
 4972SOL    HW216358   6.315   6.622  11.128 -0.8820 -1.0158  1.2820
 4973SOL     OW16359   3.947   5.267  10.166 -0.2559  0.4568 -0.2609
 4973SOL    HW116360   3.956   5.338  10.102 -0.0606 -0.2533 -1.0267
 4973SOL    HW216361   4.018   5.282  10.228  0.6284  0.1585 -1.1802
 4974SOL     OW16362   7.451   5.857   2.396  0.0630  0.0866 -0.0395
 4974SOL    HW116363   7.458   5.785   2.459 -1.0051  0.2149  0.2383
 4974SOL    HW216364   7.541   5.888   2.385  0.2866 -0.0279  1.3133
 4975SOL     OW16365   4.384   3.223   5.264 -0.0722 -0.1019 -0.0999
 4975SOL    HW116366   4.469   3.194   5.229  0.3517  0.4191  0.4936
 4975SOL    HW216367   4.405   3.265   5.347 -0.9145  0.0676  0.0329
 4976SOL     OW16368   2.184   6.843   8.430 -0.6156  0.3864  0.5034
 4976SOL    HW116369   2.123   6.828   8.502 -0.8511  0.5456  0.3383
 4976SOL    HW216370   2.269   6.852   8.472 -0.2736 -2.2866  0.5845
 4977SOL     OW16371   6.772   7.624  10.713 -0.1280 -0.4638 -0.7397
 4977SOL    HW116372   6.809   7.712  10.712  1.7952 -0.7837  4.6836
 4977SOL    HW216373   6.846   7.567  10.689  1.0476 -0.7153  2.8396
 4978SOL     OW16374   2.912   6.782   0.350  0.3901 -0.1817  0.6097
 4978SOL    HW116375   2.833   6.733   0.330 -1.1371  2.1268  0.5600
 4978SOL    HW216376   2.908   6.797   0.444  0.6677  0.0979  0.5779
 4979SOL     OW16377   2.729   5.165   6.944  0.4981 -0.3461 -0.8042
 4979SOL    HW116378   2.790   5.127   6.881  0.7435 -1.4691  0.0709
 4979SOL    HW216379   2.711   5.093   7.005 -1.8818 -0.1482 -1.1676
 4980SOL     OW16380   7.532   3.225   1.442 -0.2702 -0.2080  0.1916
 4980SOL    HW116381   7.545   3.316   1.418 -1.2355  0.1982  1.1529
 4980SOL    HW216382   7.461   3.194   1.386 -0.3056 -0.2130  0.2392
 4981SOL     OW16383   1.294   0.426   5.319 -0.0787  0.0330  0.2849
 4981SOL    HW116384   1.223   0.428   5.383 -2.1699  0.5646 -1.9190
 4981SOL    HW216385   1.299   0.515   5.285 -0.5277 -0.6570 -1.7662
 4982SOL     OW16386   7.658   2.898   0.243 -0.1101 -0.1799 -0.4463
 4982SOL    HW116387   7.678   2.929   0.155  0.4832  0.5901 -0.0572
 4982SOL    HW216388   7.714   2.951   0.300 -0.9465 -0.2184  0.4368
 4983SOL     OW16389   1.018   2.105   2.023 -0.5079 -0.2227 -0.3928
 4983SOL    HW116390   0.946   2.083   1.964 -0.1254 -1.1457 -0.5349
 4983SOL    HW216391   1.009   2.043   2.095 -0.4503  0.3235  0.0926
 4984SOL     OW16392   2.601   4.632   8.287 -0.7632  0.0901  0.2821
 4984SOL    HW116393   2.679   4.579   8.273 -0.3938  1.2187 -2.6426
 4984SOL    HW216394   2.635   4.719   8.308 -1.3348 -0.1606  2.4426
 4985SOL     OW16395   6.120   2.778   0.520  0.3325  0.2893  0.4569
 4985SOL    HW116396   6.070   2.785   0.601 -1.4723  0.9566 -0.6431
 4985SOL    HW216397   6.211   2.768   0.548 -0.1064  1.5768  2.5385
 4986SOL     OW16398   5.027   1.573  10.017 -0.3871  0.3961 -0.5385
 4986SOL    HW116399   4.973   1.547  10.092  1.2562 -1.0513  0.2136
 4986SOL    HW216400   5.039   1.493   9.967  1.0598  0.6675 -0.6759
 4987SOL     OW16401   1.612   1.979  12.147 -0.2158  0.6326 -0.0359
 4987SOL    HW116402   1.632   1.965  12.054 -0.5743  1.5886 -0.2680
 4987SOL    HW216403   1.517   1.973  12.152 -0.1463 -0.1905  0.4130
 4988SOL     OW16404   2.101   4.230   9.942 -0.2306 -0.0123  0.1534
 4988SOL    HW116405   2.164   4.276   9.998  0.8017 -0.4732 -0.5856
 4988SOL    HW216406   2.131   4.248   9.853 -0.2368 -1.4987 -0.1706
 4989SOL     OW16407   3.584   3.794   7.365  0.3822  0.2187  0.4323
 4989SOL    HW116408   3.650   3.787   7.296  0.7347  2.2188  0.5181
 4989SOL    HW216409   3.606   3.874   7.412 -2.3829  1.2431  0.1669
 4990SOL     OW16410   5.262   4.767   4.270 -0.8249 -0.3949  0.6527
 4990SOL    HW116411   5.257   4.808   4.356  0.0162  1.4778 -0.1335
 4990SOL    HW216412   5.180   4.791   4.227  0.1395  1.5591 -0.2176
 4991SOL     OW16413   2.192   2.373  11.735  0.3535  0.0122  0.6331
 4991SOL    HW116414   2.139   2.408  11.664  0.3111 -0.7117  0.2983
 4991SOL    HW216415   2.204   2.446  11.795  1.0693  0.8605 -0.5140
 4992SOL     OW16416   7.798   2.579   2.997 -0.8641  0.3276 -0.2427
 4992SOL    HW116417   7.734   2.618   3.057 -0.1055  1.3479 -0.0733
 4992SOL    HW216418   7.883   2.595   3.038 -0.3386  0.9758 -1.5234
 4993SOL     OW16419   3.873   1.360   2.900 -0.3489  0.0433 -0.3608
 4993SOL    HW116420   3.790   1.313   2.896 -0.1420 -0.4796  0.9849
 4993SOL    HW216421   3.919   1.322   2.975  0.4402  1.4067 -0.1151
 4994SOL     OW16422   1.401   2.923  10.255  0.6113 -0.0306 -0.3300
 4994SOL    HW116423   1.469   2.958  10.312 -0.3799 -0.3119  1.0855
 4994SOL    HW216424   1.396   2.830  10.277  1.5322 -0.5873 -2.2921
 4995SOL     OW16425   0.325   0.145  11.189  0.6484  0.2286  0.6494
 4995SOL    HW116426   0.233   0.132  11.166  0.4598  0.9434  0.9776
 4995SOL    HW216427   0.327   0.231  11.232  1.6676  0.7731 -0.4457
 4996SOL     OW16428   7.651   7.374   9.704 -0.0940  0.3564  0.0775
 4996SOL    HW116429   7.736   7.417   9.692  0.2806 -0.1667  0.8060
 4996SOL    HW216430   7.662   7.319   9.781 -0.4745 -1.2595 -0.9672
 4997SOL     OW16431   6.591   5.565  10.857 -0.5192  0.4544  0.0748
 4997SOL    HW116432   6.601   5.476  10.889  1.2870  0.5765 -0.0129
 4997SOL    HW216433   6.516   5.600  10.904 -1.6496 -1.2938 -0.3420
 4998SOL     OW16434   2.909   0.068   8.699 -0.2704 -0.6159  0.3169
 4998SOL    HW116435   2.909   0.154   8.655 -3.4678 -1.0660 -0.8513
 4998SOL    HW216436   2.989   0.068   8.751  1.9498  1.4578 -2.6820
 4999SOL     OW16437   1.047   2.595   7.162 -0.3361 -0.7376 -0.0348
 4999SOL    HW116438   1.030   2.688   7.151  0.6602 -0.5949 -0.4363
 4999SOL    HW216439   0.997   2.570   7.240  0.7733  0.5286  1.1357
 5000SOL     OW16440   5.244   5.814   3.982 -0.2415  0.2992  0.7336
 5000SOL    HW116441   5.296   5.738   3.954  0.3904  0.2602  1.9328
 5000SOL    HW216442   5.292   5.890   3.949 -1.2576  0.1833 -1.0930
 5001SOL     OW16443   1.317   5.572   1.477 -0.4698  0.2272 -0.0274
 5001SOL    HW116444   1.273   5.519   1.411 -0.5449  0.7343 -0.3870
 5001SOL    HW216445   1.285   5.661   1.463  2.1895  1.0423 -1.6966
 5002SOL     OW16446   3.860   0.482   9.809  0.5557  0.0526 -0.1489
 5002SOL    HW116447   3.955   0.492   9.820  0.7464 -1.9640  0.4377
 5002SOL    HW216448   3.825   0.570   9.821  2.3895  0.9354 -0.8928
 5003SOL     OW16449   3.829   1.974   2.575 -0.1271 -0.6497 -0.8063
 5003SOL    HW116450   3.910   2.024   2.565 -0.4476  0.1030  0.1275
 5003SOL    HW216451   3.811   1.978   2.669  0.6841 -3.8980 -0.4095
 5004SOL     OW16452   6.172   4.066   0.147 -0.0334 -0.2093  0.4105
 5004SOL    HW116453   6.177   4.010   0.225 -2.5239 -0.8004  0.2580
 5004SOL    HW216454   6.079   4.088   0.140  0.4072  1.3227 -1.3921
 5005SOL     OW16455   1.812   0.085   9.627  0.4046 -0.1924 -0.2017
 5005SOL    HW116456   1.866   0.115   9.699 -0.0632  1.9045 -0.6648
 5005SOL    HW216457   1.724   0.118   9.647  0.1428 -0.0943 -1.4286
 5006SOL     OW16458   4.110   6.027   5.638  0.4315 -0.2895  0.0323
 5006SOL    HW116459   4.056   5.952   5.665  1.5849 -1.2469 -0.2296
 5006SOL    HW216460   4.084   6.097   5.697 -0.3093 -1.0532  0.6450
 5007SOL     OW16461   0.230   3.327   1.557 -0.1828  0.7655  0.6919
 5007SOL    HW116462   0.137   3.310   1.540  0.4591 -0.5571 -2.3126
 5007SOL    HW216463   0.243   3.418   1.532 -0.1069 -0.0212 -2.6850
 5008SOL     OW16464   0.755   4.140   8.329  0.2784  0.1091  0.2066
 5008SOL    HW116465   0.697   4.170   8.260 -0.6858 -0.3561  0.7856
 5008SOL    HW216466   0.704   4.074   8.376  1.3450 -0.4474  0.6271
 5009SOL     OW16467   3.564   1.918   1.094 -0.5462 -0.6496 -0.1771
 5009SOL    HW116468   3.625   1.929   1.022  0.6095  0.5604  0.9221
 5009SOL    HW216469   3.490   1.870   1.057 -0.1968  0.3173 -2.2548
 5010SOL     OW16470   4.987   0.847   5.878 -0.2473  0.0461  0.5685
 5010SOL    HW116471   4.897   0.876   5.858  0.0198  0.6537  0.2196
 5010SOL    HW216472   5.010   0.791   5.804  0.2838  1.2951 -0.2614
 5011SOL     OW16473   1.122   3.509  12.269  0.2276 -0.1880  0.6848
 5011SOL    HW116474   1.215   3.521  12.288  0.5181 -3.5991  2.1675
 5011SOL    HW216475   1.117   3.512  12.173  1.7700  0.3676  0.5819
 5012SOL     OW16476   3.361   4.095  11.096  0.0311  0.4790  0.0058
 5012SOL    HW116477   3.318   4.018  11.133  0.0722  0.4695  0.0327
 5012SOL    HW216478   3.422   4.124  11.164  2.0835 -1.1179 -1.0673
 5013SOL     OW16479   5.262   6.360   6.102  1.0730  0.1618  0.5109
 5013SOL    HW116480   5.213   6.442   6.112 -1.8161 -1.2033 -1.2097
 5013SOL    HW216481   5.300   6.366   6.014  2.6047  0.4184  1.1444
 5014SOL     OW16482   3.240   5.494   7.770 -0.6948 -0.0511  0.1441
 5014SOL    HW116483   3.166   5.542   7.808 -1.1508 -0.4440 -0.2301
 5014SOL    HW216484   3.270   5.437   7.840 -0.8840 -0.0429  0.2339
 5015SOL     OW16485   4.415   0.959   4.162 -0.0898 -0.2138 -0.0599
 5015SOL    HW116486   4.457   0.916   4.236 -1.0675  1.2090  1.3833
 5015SOL    HW216487   4.333   0.994   4.197  0.2222  2.0294 -1.3620
 5016SOL     OW16488   3.147   2.130   7.551  0.4474 -0.2390 -0.6388
 5016SOL    HW116489   3.054   2.154   7.558  0.7126  0.5942  0.1048
 5016SOL    HW216490   3.163   2.124   7.457 -0.5631 -1.2361 -0.7744
 5017SOL     OW16491   2.108   1.739   9.760  0.0573 -0.1839  0.6335
 5017SOL    HW116492   2.170   1.705   9.696 -1.8517  1.5488 -2.3925
 5017SOL    HW216493   2.023   1.705   9.731 -1.0284  1.6820  1.4421
 5018SOL     OW16494   3.328   6.488   2.583 -0.2487  1.0479 -0.7519
 5018SOL    HW116495   3.372   6.416   2.627  0.6536  0.7918 -2.0121
 5018SOL    HW216496   3.354   6.566   2.631  0.4088  0.7389 -0.5918
 5019SOL     OW16497   2.673   1.278   7.698 -0.5527 -0.0626  0.0729
 5019SOL    HW116498   2.636   1.260   7.785 -0.1724  1.4460  0.5814
 5019SOL    HW216499   2.600   1.264   7.638 -1.4457  1.0015  0.8640
 5020SOL     OW16500   7.872   5.092   3.572  0.1603  0.4728 -0.3197
 5020SOL    HW116501   7.816   5.016   3.587 -0.0396  0.7716  0.4386
 5020SOL    HW216502   7.818   5.152   3.521 -0.1862  0.7225  0.3318
 5021SOL     OW16503   7.710   5.495  12.318 -0.3323 -0.1248 -0.4594
 5021SOL    HW116504   7.735   5.434  12.248 -1.3048 -0.1291 -0.8232
 5021SOL    HW216505   7.614   5.494  12.317 -0.3674 -0.2601  1.0000
 5022SOL     OW16506   6.681   1.129   1.211  0.5313 -0.3605 -0.1745
 5022SOL    HW116507   6.716   1.053   1.164 -1.1090 -1.4418  0.2736
 5022SOL    HW216508   6.678   1.102   1.303 -3.2353 -1.1795 -0.3587
 5023SOL     OW16509   2.405   0.155  10.763  0.3186 -0.1034  0.0514
 5023SOL    HW116510   2.487   0.148  10.713  1.2731  0.9316  1.3789
 5023SOL    HW216511   2.365   0.236  10.732 -0.4649 -0.8239 -0.9034
 5024SOL     OW16512   3.402   0.801  11.285 -0.3294  0.0540  0.4032
 5024SOL    HW116513   3.451   0.733  11.331  2.2492  1.6978  0.2965
 5024SOL    HW216514   3.447   0.810  11.201 -2.5631 -0.2127 -0.8794
 5025SOL     OW16515   0.768   1.324   3.738  0.1066 -0.0082  0.5654
 5025SOL    HW116516   0.736   1.263   3.805 -0.1028 -0.0692  0.4111
 5025SOL    HW216517   0.747   1.281   3.655 -2.0600  1.2334  0.3957
 5026SOL     OW16518   5.482   0.686   0.378 -0.4563 -0.2735  0.0405
 5026SOL    HW116519   5.429   0.758   0.345 -0.4665 -0.7524 -1.0113
 5026SOL    HW216520   5.565   0.693   0.331 -0.4459 -0.9282 -0.0445
 5027SOL     OW16521   3.014   0.529   6.237  0.5934 -0.2909 -0.2239
 5027SOL    HW116522   3.066   0.564   6.164  1.0580 -0.7184 -0.1064
 5027SOL    HW216523   2.964   0.604   6.269 -0.8289 -0.4273 -1.9750
 5028SOL     OW16524   4.893   6.203   2.096 -0.3957  0.2508  0.5382
 5028SOL    HW116525   4.892   6.283   2.149 -0.2352  0.1628  0.6770
 5028SOL    HW216526   4.874   6.133   2.158  0.9576  0.0144  0.7180
 5029SOL     OW16527   3.498   5.005   8.073  0.5167 -0.1653 -0.2577
 5029SOL    HW116528   3.555   4.933   8.046  0.7506 -0.6833  1.4745
 5029SOL    HW216529   3.537   5.036   8.155 -1.0131  0.2575  0.3375
 5030SOL     OW16530   3.373   4.292   6.354  0.2567  0.0218 -0.0215
 5030SOL    HW116531   3.288   4.328   6.326  0.6858  0.3761 -0.8856
 5030SOL    HW216532   3.436   4.362   6.337  1.0823 -1.0418 -1.5728
 5031SOL     OW16533   7.442   3.756   5.309 -0.3807  0.3990 -0.2478
 5031SOL    HW116534   7.358   3.736   5.269 -1.0263 -0.1180  1.2976
 5031SOL    HW216535   7.420   3.799   5.392  0.8162 -0.6773  0.6745
 5032SOL     OW16536   6.430   4.492   5.151 -0.0378  0.0284  0.5340
 5032SOL    HW116537   6.412   4.584   5.133  0.5051 -0.1330 -0.9605
 5032SOL    HW216538   6.521   4.490   5.181  0.4218 -0.1532 -0.8103
 5033SOL     OW16539   0.530   4.907   7.705  0.1132  0.0120  0.1092
 5033SOL    HW116540   0.458   4.968   7.686 -1.5419 -1.0233  2.5002
 5033SOL    HW216541   0.491   4.820   7.693  1.1276 -0.5733  0.9322
 5034SOL     OW16542   2.050   2.941   6.380 -0.3280  0.6143 -0.3106
 5034SOL    HW116543   1.983   2.968   6.442 -0.9049  0.3988 -0.8233
 5034SOL    HW216544   2.044   3.006   6.309  0.4542  0.9728 -0.0577
 5035SOL     OW16545   6.174   1.188   5.536  0.3817 -0.5599  0.5260
 5035SOL    HW116546   6.262   1.212   5.507  0.9383 -1.3319  1.5053
 5035SOL    HW216547   6.179   1.093   5.550 -0.1097 -0.3632  2.2001
 5036SOL     OW16548   6.674   5.358   2.066  0.0831 -0.2894  0.3027
 5036SOL    HW116549   6.674   5.302   2.144  2.4550 -1.9178 -0.7598
 5036SOL    HW216550   6.677   5.297   1.993  0.2540  1.2294 -1.0024
 5037SOL     OW16551   0.827   2.385   8.055  0.2110  0.2052  0.0960
 5037SOL    HW116552   0.833   2.412   8.147  0.5597  1.4875 -0.2818
 5037SOL    HW216553   0.842   2.465   8.005 -0.3348 -0.3946 -1.0885
 5038SOL     OW16554   2.450   6.878   1.993  0.2596 -0.3599  0.0593
 5038SOL    HW116555   2.418   6.911   1.909 -0.4573  1.5300  1.0162
 5038SOL    HW216556   2.528   6.930   2.011 -0.6809  0.6665  1.4266
 5039SOL     OW16557   6.460   1.679   1.921  0.0610 -0.4766  0.4186
 5039SOL    HW116558   6.496   1.596   1.888 -0.8570  0.1824 -2.5257
 5039SOL    HW216559   6.369   1.659   1.940  0.0865 -0.3685  0.6559
 5040SOL     OW16560   6.874   1.431   3.717 -0.1037 -0.6832  0.3175
 5040SOL    HW116561   6.806   1.364   3.710 -2.6611  1.6455  0.9558
 5040SOL    HW216562   6.903   1.447   3.627 -3.1150  0.7307 -0.5293
 5041SOL     OW16563   6.770   4.862   9.928 -0.4005 -0.2417  0.1536
 5041SOL    HW116564   6.679   4.889   9.927 -0.5068 -0.6173 -0.6884
 5041SOL    HW216565   6.768   4.769   9.951 -0.3044 -0.5048 -0.8804
 5042SOL     OW16566   1.017   1.873   4.962 -0.0150 -0.0872  0.2888
 5042SOL    HW116567   1.052   1.802   4.908 -1.0822 -0.6335  0.2803
 5042SOL    HW216568   0.949   1.913   4.908 -0.7915 -0.3505  1.0551
 5043SOL     OW16569   5.090   0.018   3.746  0.1076  0.3021 -0.5626
 5043SOL    HW116570   5.014   0.048   3.697 -0.2316  2.1758  0.9913
 5043SOL    HW216571   5.163   0.072   3.715  0.7968 -1.2119 -1.7574
 5044SOL     OW16572   5.972   2.645   7.262  0.7145 -0.8138  0.3120
 5044SOL    HW116573   5.933   2.566   7.225  2.8694 -1.7066 -0.1996
 5044SOL    HW216574   6.057   2.652   7.219  0.0499  2.6271 -0.7407
 5045SOL     OW16575   1.255   0.624   3.544  0.2961 -0.0574 -0.0865
 5045SOL    HW116576   1.190   0.594   3.481  1.9595  0.7246 -2.3214
 5045SOL    HW216577   1.322   0.556   3.544  1.0015  0.6143 -0.3014
 5046SOL     OW16578   6.753   3.386   9.067 -0.1245  0.2148 -0.5515
 5046SOL    HW116579   6.770   3.381   8.973  1.5002 -1.1531 -0.2409
 5046SOL    HW216580   6.667   3.346   9.079  0.4133 -1.2396 -1.3072
 5047SOL     OW16581   1.789   4.889   9.011  0.3806  0.2811  0.2720
 5047SOL    HW116582   1.708   4.848   8.978  1.0074 -1.3987  0.6858
 5047SOL    HW216583   1.838   4.816   9.049  1.3083  1.5599  1.6307
 5048SOL     OW16584   5.974   4.376   1.708  0.5611 -0.3085  0.0469
 5048SOL    HW116585   5.936   4.454   1.667 -0.6339 -0.7347  0.3117
 5048SOL    HW216586   5.914   4.305   1.685  1.0537 -0.9519  0.7108
 5049SOL     OW16587   2.274   4.953   4.812 -0.4570 -0.1708  0.1002
 5049SOL    HW116588   2.214   4.890   4.852  0.3939 -1.2879 -0.3312
 5049SOL    HW216589   2.329   4.900   4.754  1.7892  0.5916  1.4124
 5050SOL     OW16590   4.127   2.051   5.250 -0.3365  0.4421 -0.1102
 5050SOL    HW116591   4.043   2.053   5.296 -0.3047  0.9742 -0.0687
 5050SOL    HW216592   4.139   2.141   5.218  0.2165  0.3699 -0.1147
 5051SOL     OW16593   7.023   4.966   0.907  0.5916 -0.3831 -0.1205
 5051SOL    HW116594   6.969   4.980   0.830 -1.9209  1.6243  1.8180
 5051SOL    HW216595   7.095   5.029   0.898 -1.0477  1.6390  0.2478
 5052SOL     OW16596   1.816   4.765   1.564 -0.2163  0.0096  0.1107
 5052SOL    HW116597   1.731   4.805   1.582  0.3786  1.7277 -0.7395
 5052SOL    HW216598   1.822   4.762   1.469  0.8617  0.3380  0.1533
 5053SOL     OW16599   6.338   1.135   2.636 -0.5978 -0.1998  0.0689
 5053SOL    HW116600   6.311   1.227   2.636  1.5966  0.5331 -1.7812
 5053SOL    HW216601   6.390   1.126   2.716  1.0775  0.8657 -0.8397
 5054SOL     OW16602   1.497   5.523   9.784 -0.3784 -0.4871 -0.6786
 5054SOL    HW116603   1.524   5.607   9.820  1.1838 -1.3450  0.2283
 5054SOL    HW216604   1.402   5.530   9.776 -0.1878  1.8292 -1.8867
 5055SOL     OW16605   3.816   3.665  11.477  0.2650  0.7255 -0.0057
 5055SOL    HW116606   3.799   3.655  11.570  0.9683  0.7797  0.1356
 5055SOL    HW216607   3.734   3.698  11.441 -0.0755  0.5031  0.5559
 5056SOL     OW16608   5.746   6.788  11.086 -0.0024  0.0139 -0.1859
 5056SOL    HW116609   5.726   6.698  11.059  0.4413 -0.1559  0.0347
 5056SOL    HW216610   5.749   6.783  11.182  0.5518  0.1459 -0.1943
 5057SOL     OW16611   0.256   6.552   1.526 -0.1078  0.5771 -0.4281
 5057SOL    HW116612   0.230   6.496   1.453 -0.1997  0.0495  0.0039
 5057SOL    HW216613   0.305   6.623   1.485  0.4293 -0.0711 -0.9364
 5058SOL     OW16614   6.553   2.932   3.070 -0.1536  0.2341  0.4302
 5058SOL    HW116615   6.499   3.008   3.049 -0.6323 -0.0661  0.5472
 5058SOL    HW216616   6.548   2.925   3.166 -1.3631 -0.8248  0.3249
 5059SOL     OW16617   4.372   2.653   5.392 -0.1568 -0.1998 -0.3983
 5059SOL    HW116618   4.383   2.573   5.341 -1.0847  0.4814 -1.7499
 5059SOL    HW216619   4.352   2.624   5.481 -0.4737 -1.4596 -0.8653
 5060SOL     OW16620   3.861   5.398   0.214 -0.6635 -0.6726 -0.2745
 5060SOL    HW116621   3.857   5.382   0.119 -0.2855 -0.0401 -0.4036
 5060SOL    HW216622   3.770   5.396   0.242 -0.7411 -1.4237 -0.5520
 5061SOL     OW16623   2.515   6.840   6.009  0.4200 -0.4420 -0.2767
 5061SOL    HW116624   2.574   6.852   6.083 -0.3808 -2.7025  0.8284
 5061SOL    HW216625   2.573   6.840   5.932  1.4225  0.6836  0.4509
 5062SOL     OW16626   0.229   0.591   5.664  0.3449 -0.3840  0.3892
 5062SOL    HW116627   0.248   0.627   5.750 -2.1172 -0.8017  1.2034
 5062SOL    HW216628   0.145   0.632   5.640 -0.0332 -1.8099 -0.8667
 5063SOL     OW16629   3.113   3.100   7.338 -0.0639  0.3437  0.2546
 5063SOL    HW116630   3.159   3.162   7.282  1.7062  1.2521  2.5359
 5063SOL    HW216631   3.147   3.014   7.312  2.9722  0.9598  1.6720
 5064SOL     OW16632   5.550   6.502   7.847 -0.0400  0.5052  0.0378
 5064SOL    HW116633   5.463   6.531   7.872  0.4763  0.8607  1.5363
 5064SOL    HW216634   5.605   6.579   7.858  0.7943 -0.1976  0.9975
 5065SOL     OW16635   1.256   1.095   1.652  0.3026  0.8295 -0.6735
 5065SOL    HW116636   1.339   1.050   1.663 -1.1213 -2.3633 -1.6581
 5065SOL    HW216637   1.200   1.059   1.722 -0.9399  0.9293 -1.5724
 5066SOL     OW16638   6.282   5.406   9.508 -0.2023  0.2711 -0.1937
 5066SOL    HW116639   6.214   5.358   9.461 -0.1178 -0.7278  0.6604
 5066SOL    HW216640   6.363   5.362   9.485  0.1631  1.3896 -1.1188
 5067SOL     OW16641   3.627   2.775   2.648  0.2435 -0.0657 -0.0465
 5067SOL    HW116642   3.721   2.756   2.648  0.5125  1.1195  1.3369
 5067SOL    HW216643   3.621   2.863   2.610 -0.1354  0.4837  1.2359
 5068SOL     OW16644   3.103   6.605  12.217 -0.1271 -0.4556 -0.5620
 5068SOL    HW116645   3.146   6.523  12.195  1.4274 -0.1086  0.9407
 5068SOL    HW216646   3.102   6.607  12.312  0.1225  1.3568 -0.5549
 5069SOL     OW16647   6.980   4.094   7.163 -0.0591 -0.0380  0.1295
 5069SOL    HW116648   7.041   4.141   7.219  1.8006 -1.4484 -0.6192
 5069SOL    HW216649   6.936   4.162   7.112 -1.0925  1.2035  2.4973
 5070SOL     OW16650   7.043   0.534   3.965 -0.4337 -0.1908 -0.0712
 5070SOL    HW116651   7.095   0.454   3.960 -1.8488 -1.2688  1.4996
 5070SOL    HW216652   6.982   0.528   3.892  1.4373  1.0330 -1.8642
 5071SOL     OW16653   7.722   2.064   4.719  0.2289 -0.4350 -0.2505
 5071SOL    HW116654   7.678   2.135   4.766  0.5323  0.0903 -0.7538
 5071SOL    HW216655   7.653   2.024   4.666  0.2308  0.0376 -0.6184
 5072SOL     OW16656   5.431   6.691   0.071  0.0523 -0.1008 -0.2453
 5072SOL    HW116657   5.482   6.637   0.011  1.1463 -0.2607  0.7974
 5072SOL    HW216658   5.394   6.629   0.134  0.4688  0.2425  0.3488
 5073SOL     OW16659   6.504   7.735   5.748  0.0089 -0.3003  0.0741
 5073SOL    HW116660   6.519   7.649   5.710  0.9461 -0.7321  1.3412
 5073SOL    HW216661   6.563   7.793   5.700  0.9106 -0.7658  0.5927
 5074SOL     OW16662   2.862   6.678  11.682  0.1830 -0.2663 -0.2261
 5074SOL    HW116663   2.914   6.617  11.734  0.0384  0.3882  0.7142
 5074SOL    HW216664   2.926   6.742  11.649  0.3265 -0.8741 -1.1653
 5075SOL     OW16665   3.351   2.692  11.692 -0.0517 -0.1317 -0.4110
 5075SOL    HW116666   3.408   2.739  11.753  0.1977 -0.7992 -0.1137
 5075SOL    HW216667   3.354   2.743  11.612  0.8673 -0.0723 -0.3577
 5076SOL     OW16668   1.897   5.978  11.301  0.1087 -0.2599 -0.0926
 5076SOL    HW116669   1.951   5.900  11.313 -0.0544 -0.2903  0.4605
 5076SOL    HW216670   1.862   5.997  11.388 -1.3561 -0.6527 -0.5797
 5077SOL     OW16671   7.636   6.855   8.397 -0.2682  0.1399 -0.3233
 5077SOL    HW116672   7.549   6.865   8.437 -0.6907 -0.4039 -1.0622
 5077SOL    HW216673   7.630   6.905   8.316  0.7714  1.7214  0.5248
 5078SOL     OW16674   4.539   4.891   4.231 -0.0465 -0.3892  0.0312
 5078SOL    HW116675   4.489   4.945   4.293  1.1993 -1.8481  2.4930
 5078SOL    HW216676   4.481   4.879   4.157 -2.0878  0.6065  1.3767
 5079SOL     OW16677   0.823   1.781   4.575  0.6232 -0.2249  0.1870
 5079SOL    HW116678   0.887   1.851   4.585 -1.7539  1.9690  1.4542
 5079SOL    HW216679   0.808   1.777   4.480  2.3175 -0.5464 -0.0975
 5080SOL     OW16680   1.859   4.803   0.328 -0.5733  0.3152  0.0603
 5080SOL    HW116681   1.893   4.834   0.244 -0.3330 -0.0522  0.0225
 5080SOL    HW216682   1.799   4.732   0.304  0.1689 -0.3810  0.2554
 5081SOL     OW16683   3.296   5.488   5.946 -0.0413  0.2050 -0.0389
 5081SOL    HW116684   3.376   5.518   5.902  0.0659  0.7840  0.5296
 5081SOL    HW216685   3.248   5.440   5.879  0.8857 -0.3301 -0.3278
 5082SOL     OW16686   6.441   0.453   1.914 -0.8362 -0.3084 -0.1248
 5082SOL    HW116687   6.537   0.453   1.924 -0.9223 -0.2926  0.8246
 5082SOL    HW216688   6.414   0.368   1.947 -1.2129 -0.0045  0.3678
 5083SOL     OW16689   0.014   0.181  12.188  0.0234  0.3516  0.5066
 5083SOL    HW116690   0.030   0.266  12.146  0.5212  1.0184  1.9914
 5083SOL    HW216691   0.100   0.141  12.193 -0.1486 -0.0592  0.2191
 5084SOL     OW16692   1.050   7.093   4.827  0.7930  0.1087  0.3140
 5084SOL    HW116693   0.996   7.026   4.786  1.0301 -0.0287  0.2269
 5084SOL    HW216694   1.020   7.175   4.787  1.3840 -0.0736 -0.5352
 5085SOL     OW16695   2.887   5.107   6.734 -0.3287  0.7589 -0.0131
 5085SOL    HW116696   2.864   5.151   6.652  1.0494 -0.4492 -1.0861
 5085SOL    HW216697   2.970   5.146   6.760  1.5471 -1.8490 -1.6112
 5086SOL     OW16698   0.626   5.125   5.936  0.0050 -0.0944  0.3225
 5086SOL    HW116699   0.545   5.176   5.938 -1.3614 -2.0681 -1.1760
 5086SOL    HW216700   0.605   5.044   5.980  0.6604 -1.2419 -1.3677
 5087SOL     OW16701   1.213   7.748   8.078  0.5048 -0.3830 -0.7661
 5087SOL    HW116702   1.122   7.722   8.091  0.8840 -1.2777  0.1325
 5087SOL    HW216703   1.216   7.840   8.106 -0.1626 -0.2828 -1.0143
 5088SOL     OW16704   5.647   7.216   3.205 -0.6919 -0.4834 -0.3259
 5088SOL    HW116705   5.666   7.136   3.156 -2.5977 -0.7938 -0.6468
 5088SOL    HW216706   5.630   7.187   3.294  0.3635 -0.2007 -0.0167
 5089SOL     OW16707   0.647   1.380   1.376  0.5248 -0.1165 -0.0938
 5089SOL    HW116708   0.659   1.364   1.282 -0.5057  3.0809 -0.9160
 5089SOL    HW216709   0.562   1.340   1.396  0.3761 -0.1403 -0.7437
 5090SOL     OW16710   0.524   5.833   7.177 -0.3299 -0.3189 -0.2402
 5090SOL    HW116711   0.620   5.836   7.180 -0.1035  0.2794 -3.8444
 5090SOL    HW216712   0.499   5.921   7.150 -1.7229 -1.0567 -1.4372
 5091SOL     OW16713   5.881   5.787   9.992  0.2034 -0.4286 -0.4157
 5091SOL    HW116714   5.830   5.744  10.061  1.1235  0.5762  0.9346
 5091SOL    HW216715   5.834   5.869   9.975  0.8081  0.0262  0.1021
 5092SOL     OW16716   1.565   7.293   4.491 -0.6390 -0.0753 -0.3922
 5092SOL    HW116717   1.559   7.210   4.444  0.7710 -0.6115  0.3087
 5092SOL    HW216718   1.543   7.359   4.425  0.0036 -0.8866 -1.4626
 5093SOL     OW16719   6.533   2.562   1.908  0.4692  0.5127 -0.0350
 5093SOL    HW116720   6.448   2.584   1.870  0.4840 -0.1051 -0.4444
 5093SOL    HW216721   6.592   2.559   1.833  1.2051  2.4465  0.3961
 5094SOL     OW16722   3.244   3.968   3.663  0.5196 -0.2966 -0.1914
 5094SOL    HW116723   3.150   3.967   3.645  0.4883  2.8751 -0.8429
 5094SOL    HW216724   3.282   4.018   3.590  2.5229 -0.4109  0.7061
 5095SOL     OW16725   2.170   7.139   3.552 -0.4153  0.3654 -0.4604
 5095SOL    HW116726   2.147   7.053   3.586  0.0118  0.7130  0.7858
 5095SOL    HW216727   2.173   7.128   3.457 -4.4994 -0.0027 -0.7356
 5096SOL     OW16728   4.846   2.662   0.349 -0.2270 -0.2065  0.1967
 5096SOL    HW116729   4.844   2.594   0.282  1.0530 -0.7435  0.6594
 5096SOL    HW216730   4.878   2.617   0.428  1.5463  1.0728  0.2857
 5097SOL     OW16731   4.470   0.196  12.027  0.5113 -0.1228 -0.3952
 5097SOL    HW116732   4.468   0.291  12.013 -1.7180  0.3004  2.0775
 5097SOL    HW216733   4.424   0.159  11.952 -0.2442  0.9197 -0.4590
 5098SOL     OW16734   4.084   0.274   5.575 -0.1430  0.4011  0.1677
 5098SOL    HW116735   4.012   0.338   5.569 -1.3129 -0.7755  0.9893
 5098SOL    HW216736   4.160   0.320   5.539 -0.9861  2.1824  0.5279
 5099SOL     OW16737   4.909   2.299   1.698 -0.7138  0.0009  0.2502
 5099SOL    HW116738   4.942   2.214   1.729  0.0759  0.8314  1.8144
 5099SOL    HW216739   4.943   2.307   1.610  0.6833 -0.5534  0.7121
 5100SOL     OW16740   1.398   2.300   8.307 -0.3284 -0.3511 -0.3718
 5100SOL    HW116741   1.306   2.286   8.329 -0.1909 -0.7102 -0.0103
 5100SOL    HW216742   1.446   2.259   8.378  0.1160  1.3464  0.3492
 5101SOL     OW16743   3.866   2.561   3.649  0.7538  0.6791  0.2966
 5101SOL    HW116744   3.859   2.609   3.732  2.3037  0.1816  0.7479
 5101SOL    HW216745   3.956   2.574   3.621  0.4929  0.1115 -0.8832
 5102SOL     OW16746   3.475   6.150   1.171  0.3005  0.5216  0.2719
 5102SOL    HW116747   3.540   6.210   1.134  0.6113  0.2470  0.3650
 5102SOL    HW216748   3.527   6.078   1.207 -0.1633 -1.2181 -2.3073
 5103SOL     OW16749   6.562   5.117   0.968 -0.3480  0.4926  0.2378
 5103SOL    HW116750   6.519   5.164   0.896 -1.0741  0.9748  0.9659
 5103SOL    HW216751   6.650   5.154   0.971 -0.9132  1.8942  0.8215
 5104SOL     OW16752   6.155   6.100   3.114 -0.3415  0.4364  0.1689
 5104SOL    HW116753   6.179   6.157   3.041  1.2152 -1.4309 -0.8505
 5104SOL    HW216754   6.123   6.161   3.181  0.7440  2.4701 -1.0344
 5105SOL     OW16755   2.469   4.961  11.483  0.1194 -0.2803  0.2525
 5105SOL    HW116756   2.499   4.935  11.570  0.3546  0.0567  0.2730
 5105SOL    HW216757   2.496   4.889  11.426  0.2362 -0.3601  0.4079
 5106SOL     OW16758   3.522   5.539   4.685  0.3325  0.2927  0.2456
 5106SOL    HW116759   3.526   5.474   4.615  1.7777 -0.8923  1.3468
 5106SOL    HW216760   3.434   5.577   4.677 -0.0423 -0.7713 -1.3261
 5107SOL     OW16761   7.700   4.669   4.361 -0.3828 -0.3405 -0.1752
 5107SOL    HW116762   7.613   4.708   4.352 -0.9126 -1.2958  0.6705
 5107SOL    HW216763   7.692   4.582   4.322  0.0746 -0.5942  0.2800
 5108SOL     OW16764   3.544   7.006   7.661  0.2169  0.1845  0.3961
 5108SOL    HW116765   3.500   7.053   7.590  1.1496 -0.9309 -0.9695
 5108SOL    HW216766   3.491   7.025   7.738 -1.7119  0.2138 -0.8644
 5109SOL     OW16767   7.543   4.286  11.374 -0.0951 -0.2417  0.1438
 5109SOL    HW116768   7.619   4.274  11.318 -0.7964 -0.6661 -0.7482
 5109SOL    HW216769   7.527   4.200  11.413 -0.9636 -0.5386 -0.8094
 5110SOL     OW16770   6.104   2.813   1.932  0.0012 -0.6879  0.2705
 5110SOL    HW116771   6.165   2.885   1.946  0.4413 -0.8995 -0.4927
 5110SOL    HW216772   6.018   2.854   1.933  0.2790 -0.0402 -0.7805
 5111SOL     OW16773   6.404   6.596   8.281 -0.3678 -0.2948 -0.2703
 5111SOL    HW116774   6.310   6.605   8.298 -0.8039 -1.3699 -1.8619
 5111SOL    HW216775   6.409   6.537   8.206  1.6403 -1.4673  0.6927
 5112SOL     OW16776   6.543   1.396   5.114 -0.4934  0.0290  0.2675
 5112SOL    HW116777   6.505   1.308   5.120 -1.5726  0.5064  0.6848
 5112SOL    HW216778   6.469   1.452   5.090 -0.5500  1.3372  3.1744
 5113SOL     OW16779   1.078   3.416   8.867 -0.0194  0.4459  0.1517
 5113SOL    HW116780   1.074   3.401   8.961 -0.7283  0.0188  0.0596
 5113SOL    HW216781   1.112   3.506   8.859  0.3667  0.3655  0.7957
 5114SOL     OW16782   7.119   7.298  11.528 -0.0150  0.5522  0.7132
 5114SOL    HW116783   7.120   7.212  11.488  1.7345  0.8856 -0.0597
 5114SOL    HW216784   7.154   7.284  11.616  0.1776  0.4527  0.6219
 5115SOL     OW16785   4.100   3.798  11.028 -0.1539 -0.0189  0.2081
 5115SOL    HW116786   4.090   3.880  10.980  2.0884  0.8668  1.1056
 5115SOL    HW216787   4.178   3.757  10.990 -0.2042 -0.8547  0.9670
 5116SOL     OW16788   7.022   3.154  11.130 -0.2154 -1.1207 -0.2504
 5116SOL    HW116789   7.073   3.227  11.094  2.5644 -1.9986  1.6091
 5116SOL    HW216790   7.019   3.090  11.058 -1.0713  0.0156 -1.2666
 5117SOL     OW16791   1.443   7.684   8.783 -0.0464 -0.2472 -0.5547
 5117SOL    HW116792   1.419   7.606   8.832  0.5182 -0.9064 -1.2855
 5117SOL    HW216793   1.381   7.687   8.710 -1.9229  1.6299  1.0173
 5118SOL     OW16794   7.136   3.736  10.932  0.0422  0.2276 -0.6079
 5118SOL    HW116795   7.220   3.716  10.973 -0.0146 -1.9482 -1.4291
 5118SOL    HW216796   7.121   3.664  10.871 -2.2260  0.7993 -0.8190
 5119SOL     OW16797   6.487   3.824  10.334 -0.2976 -0.1445  0.0606
 5119SOL    HW116798   6.428   3.898  10.344 -0.8858 -0.5194 -0.5255
 5119SOL    HW216799   6.471   3.769  10.411 -0.2226  0.0815  0.2384
 5120SOL     OW16800   4.192   2.082   4.438 -0.6503  0.1782  0.1917
 5120SOL    HW116801   4.126   2.117   4.377 -0.2371  0.5695 -0.0365
 5120SOL    HW216802   4.185   2.138   4.515  0.8650  1.5938 -0.6498
 5121SOL     OW16803   6.444   0.309   5.744 -0.3408  0.1339 -0.7614
 5121SOL    HW116804   6.390   0.354   5.808 -0.2651 -0.4921 -0.2441
 5121SOL    HW216805   6.436   0.361   5.664 -1.1130  0.4482 -0.4831
 5122SOL     OW16806   0.849   4.574   3.200  0.0659 -0.2313 -0.0204
 5122SOL    HW116807   0.832   4.488   3.161  1.0890 -0.7114  0.5428
 5122SOL    HW216808   0.927   4.561   3.253 -0.3856  0.7825  0.9417
 5123SOL     OW16809   2.452   5.000   2.168 -0.3128 -0.3828 -0.4127
 5123SOL    HW116810   2.445   4.965   2.079  0.6301  2.1546 -1.5794
 5123SOL    HW216811   2.372   5.052   2.180 -0.6871 -1.1294  0.4609
 5124SOL     OW16812   4.782   6.953   1.007  0.4695  0.0630 -0.0426
 5124SOL    HW116813   4.806   6.971   1.098 -0.0663  0.1812  0.0770
 5124SOL    HW216814   4.769   7.039   0.968 -0.2475 -0.0021  0.0317
 5125SOL     OW16815   2.485   7.662   4.602  0.0834  0.0860  0.8661
 5125SOL    HW116816   2.527   7.730   4.654  0.5384  0.8736 -0.4917
 5125SOL    HW216817   2.413   7.707   4.557  0.6967 -0.1986 -0.4364
 5126SOL     OW16818   4.628   1.668   9.136 -0.3722  0.0982 -0.1679
 5126SOL    HW116819   4.695   1.713   9.085  1.1492 -1.1273  0.6485
 5126SOL    HW216820   4.582   1.738   9.183  0.9443  0.9305 -0.0686
 5127SOL     OW16821   5.525   4.171   5.647  0.0682 -0.3790 -0.0892
 5127SOL    HW116822   5.504   4.228   5.721 -1.5396  0.9625 -1.4925
 5127SOL    HW216823   5.510   4.082   5.680 -1.6392  0.2281  0.9181
 5128SOL     OW16824   6.496   1.065   9.322 -0.0148  0.1471  0.4043
 5128SOL    HW116825   6.526   0.977   9.343 -0.1956 -0.0131  0.0084
 5128SOL    HW216826   6.576   1.113   9.300 -0.0321 -0.2694 -0.6175
 5129SOL     OW16827   4.071   6.718   3.897  0.5253 -0.8839 -0.2127
 5129SOL    HW116828   4.040   6.673   3.975  0.1383 -0.9602 -0.4050
 5129SOL    HW216829   4.109   6.800   3.929  0.1848 -0.8221  0.0388
 5130SOL     OW16830   2.420   6.667   9.174 -0.3000 -0.1079 -0.3471
 5130SOL    HW116831   2.373   6.648   9.255 -2.6865 -0.0766 -1.6253
 5130SOL    HW216832   2.500   6.710   9.202  0.0568 -2.1386  2.0844
 5131SOL     OW16833   7.539   5.747   5.466 -0.0763  0.3035 -0.2264
 5131SOL    HW116834   7.486   5.671   5.441  0.0347 -0.0872  0.7071
 5131SOL    HW216835   7.510   5.768   5.555 -1.2990  2.3875 -1.0228
 5132SOL     OW16836   5.011   7.676   5.150 -0.7580 -0.1320 -0.1904
 5132SOL    HW116837   4.930   7.724   5.169 -0.2116  1.9994 -2.6406
 5132SOL    HW216838   5.077   7.744   5.139  0.9922 -1.7296  0.0175
 5133SOL     OW16839   6.589   2.858  10.022  0.0713  0.1755 -0.1022
 5133SOL    HW116840   6.518   2.818  10.073  0.0061 -1.4928 -1.4240
 5133SOL    HW216841   6.656   2.879  10.087 -1.0203  0.4136  0.9823
 5134SOL     OW16842   2.183   4.495  11.019  0.2859 -0.3507 -0.3064
 5134SOL    HW116843   2.132   4.523  11.095 -1.2150 -2.8005 -0.3034
 5134SOL    HW216844   2.212   4.577  10.979  0.7678  1.0274  2.6036
 5135SOL     OW16845   6.811   0.659   8.862  0.1477 -0.1613 -0.8085
 5135SOL    HW116846   6.768   0.660   8.947  0.7888  1.8187 -0.4760
 5135SOL    HW216847   6.851   0.572   8.857 -0.6542 -0.6418  0.4938
 5136SOL     OW16848   4.930   2.262  12.053 -0.1948  0.4014  0.5239
 5136SOL    HW116849   4.984   2.274  11.976 -0.9535 -0.1143 -0.1009
 5136SOL    HW216850   4.840   2.275  12.022 -0.4728  0.7094  1.4253
 5137SOL     OW16851   3.383   1.682   3.819 -0.2017  0.1527  0.5928
 5137SOL    HW116852   3.464   1.642   3.852 -0.4613  1.1025  2.5631
 5137SOL    HW216853   3.391   1.679   3.724  1.4007 -1.2565  0.7309
 5138SOL     OW16854   6.122   7.480   5.104  0.0261  0.3474 -0.4717
 5138SOL    HW116855   6.137   7.398   5.152  1.4345 -0.6486 -2.4869
 5138SOL    HW216856   6.194   7.537   5.131 -0.2319  0.4733 -0.0350
 5139SOL     OW16857   4.602   7.466   0.923  0.4677  0.2552 -0.0296
 5139SOL    HW116858   4.507   7.456   0.923  0.4348  0.5307 -0.3241
 5139SOL    HW216859   4.616   7.559   0.938  0.7371 -0.0494  1.7463
 5140SOL     OW16860   1.946   7.458   0.699 -0.3849 -0.7295  0.4745
 5140SOL    HW116861   1.901   7.528   0.652 -1.8118 -0.3726  2.2766
 5140SOL    HW216862   2.034   7.493   0.717 -1.2712  0.9134  1.8922
 5141SOL     OW16863   6.033   5.201   0.016 -0.1855 -0.5123 -0.5645
 5141SOL    HW116864   6.036   5.106   0.002 -0.3596 -0.2293 -2.9004
 5141SOL    HW216865   6.100   5.236  -0.043  1.2951  0.7356  1.7085
 5142SOL     OW16866   5.562   3.568   2.885 -0.1062  0.2656 -0.7780
 5142SOL    HW116867   5.569   3.587   2.792  0.2934 -0.3903 -0.8880
 5142SOL    HW216868   5.482   3.613   2.913  0.7957  2.0891 -1.0132
 5143SOL     OW16869   7.197   7.537  10.823  0.1180  0.5487 -0.4650
 5143SOL    HW116870   7.291   7.523  10.812 -0.3542 -1.8852 -2.1102
 5143SOL    HW216871   7.161   7.527  10.735 -1.9478 -1.3228  0.5089
 5144SOL     OW16872   7.841   5.787  11.612  0.8363 -0.2391 -0.2510
 5144SOL    HW116873   7.936   5.779  11.618  0.9082 -2.5858 -2.5879
 5144SOL    HW216874   7.810   5.698  11.593 -1.7325  0.6142 -0.5512
 5145SOL     OW16875   6.965   3.129   7.415  0.1273  0.2016 -0.9146
 5145SOL    HW116876   6.899   3.172   7.360 -0.2161  0.8105 -0.0501
 5145SOL    HW216877   7.048   3.162   7.381 -0.1213  1.3176 -0.4842
 5146SOL     OW16878   5.034   6.126   8.876 -0.1713  0.3951 -0.2459
 5146SOL    HW116879   4.985   6.200   8.838  0.5134  1.1505  0.3051
 5146SOL    HW216880   4.970   6.055   8.881 -0.6933  0.7714 -1.3148
 5147SOL     OW16881   5.343   0.233   8.126  0.6327 -0.2624  0.0066
 5147SOL    HW116882   5.402   0.207   8.197  1.8551 -2.0367 -1.5789
 5147SOL    HW216883   5.400   0.279   8.064  0.2297 -1.4046 -1.2366
 5148SOL     OW16884   5.884   2.156   9.717 -0.6016  0.0422 -0.4155
 5148SOL    HW116885   5.901   2.246   9.742 -0.3313 -0.0929 -0.0987
 5148SOL    HW216886   5.966   2.127   9.676 -0.0596 -0.5957  1.0615
 5149SOL     OW16887   2.703   6.290   9.427  0.2177  0.1131 -0.7206
 5149SOL    HW116888   2.775   6.256   9.373 -0.4308 -0.0554 -1.4895
 5149SOL    HW216889   2.747   6.331   9.501  1.1160  0.0068 -1.1755
 5150SOL     OW16890   6.772   5.769   8.094 -0.6616  0.4886  0.5837
 5150SOL    HW116891   6.716   5.848   8.094  1.2894  1.9537  1.4891
 5150SOL    HW216892   6.834   5.784   8.023 -0.8680 -0.7444  0.1169
 5151SOL     OW16893   4.107   7.143   3.354  0.0122  0.3527  0.2283
 5151SOL    HW116894   4.072   7.088   3.284 -0.8868 -0.8184  1.5544
 5151SOL    HW216895   4.173   7.088   3.396  1.0148  1.2912 -0.0828
 5152SOL     OW16896   2.950   7.200   7.937 -0.2269  0.3870 -0.0567
 5152SOL    HW116897   2.886   7.264   7.969 -0.4604  0.4456 -0.6239
 5152SOL    HW216898   3.035   7.236   7.964 -0.4346  0.1904  0.9047
 5153SOL     OW16899   0.269   7.560   0.436 -0.0594 -0.1678  0.5344
 5153SOL    HW116900   0.205   7.567   0.364  1.2936 -0.4724 -0.7413
 5153SOL    HW216901   0.273   7.467   0.455 -0.1378 -0.1272  0.7472
 5154SOL     OW16902   0.749   6.328  12.226  0.0729  0.6104  0.2382
 5154SOL    HW116903   0.694   6.259  12.189  2.0751 -0.7134 -0.4531
 5154SOL    HW216904   0.689   6.383  12.276 -1.5946 -1.7076  0.9445
 5155SOL     OW16905   1.889   3.939   9.016 -1.1713  0.2158  0.3152
 5155SOL    HW116906   1.851   3.899   8.939  2.2653 -0.0933 -1.4045
 5155SOL    HW216907   1.873   4.033   9.005 -1.7174  0.0772 -0.1141
 5156SOL     OW16908   1.969   5.026   6.136 -0.0858 -0.4737 -0.0397
 5156SOL    HW116909   1.896   5.022   6.073  0.3569 -1.9017 -0.5113
 5156SOL    HW216910   2.004   5.114   6.127  0.1311 -0.7107 -2.0384
 5157SOL     OW16911   5.339   6.624   6.573  0.1246  0.7298 -0.5525
 5157SOL    HW116912   5.401   6.599   6.504 -0.4749 -0.4670 -0.6956
 5157SOL    HW216913   5.302   6.707   6.543 -0.9888 -0.3263 -2.3303
 5158SOL     OW16914   7.917   6.918   0.138  0.0059  0.4005  0.4454
 5158SOL    HW116915   7.845   6.981   0.131 -1.7017 -1.3103  1.5986
 5158SOL    HW216916   7.972   6.935   0.062 -1.0434  2.4424  0.0715
 5159SOL     OW16917   6.121   5.952   4.876  0.3468 -0.2009  0.5060
 5159SOL    HW116918   6.152   5.980   4.963  0.1184  1.0122  0.2128
 5159SOL    HW216919   6.044   5.898   4.895  2.3534 -3.0138  1.2268
 5160SOL     OW16920   4.986   6.139   3.607 -0.3569 -0.2146 -0.4436
 5160SOL    HW116921   5.009   6.098   3.690  1.2560 -3.0558 -2.1241
 5160SOL    HW216922   4.910   6.090   3.575 -0.5556  0.4050 -0.9475
 5161SOL     OW16923   5.946   1.857   2.546  0.9098  0.2570 -0.2569
 5161SOL    HW116924   6.020   1.805   2.516  0.6666  0.6369 -1.5532
 5161SOL    HW216925   5.869   1.806   2.523  0.7519 -0.4669  1.7189
 5162SOL     OW16926   7.643   1.353   9.128 -0.0965  0.0698 -0.5651
 5162SOL    HW116927   7.638   1.417   9.200  2.2113  0.5458 -0.7362
 5162SOL    HW216928   7.677   1.274   9.169  0.8427  0.2202 -1.0183
 5163SOL     OW16929   3.914   6.156   2.347 -0.5283 -0.1316  0.1266
 5163SOL    HW116930   3.883   6.228   2.402 -0.1078  0.2776 -0.1615
 5163SOL    HW216931   3.962   6.098   2.407 -0.0098  0.3499  0.1880
 5164SOL     OW16932   0.582   3.276   9.915  0.0930 -0.2305  0.7649
 5164SOL    HW116933   0.604   3.237   9.830 -1.0053  1.6608 -0.4609
 5164SOL    HW216934   0.651   3.246   9.974  1.4163 -0.8363 -1.0088
 5165SOL     OW16935   6.221   4.964   0.937 -0.3627  0.7218 -0.2692
 5165SOL    HW116936   6.150   4.995   0.993  1.8291  2.1236  1.9655
 5165SOL    HW216937   6.291   5.028   0.950  1.4171 -0.7030 -2.1736
 5166SOL     OW16938   3.256   2.968   3.217  0.2242 -0.0301 -0.7142
 5166SOL    HW116939   3.218   3.055   3.204 -2.0994 -0.1995  3.2572
 5166SOL    HW216940   3.185   2.907   3.196  0.2327 -0.6686  0.9238
 5167SOL     OW16941   2.494   4.754   4.964 -0.0586  0.5763 -0.3852
 5167SOL    HW116942   2.431   4.687   4.991 -0.6932  0.5201 -1.8726
 5167SOL    HW216943   2.473   4.830   5.018  1.0629 -0.5557  1.7645
 5168SOL     OW16944   4.575   4.630   9.271 -0.0398 -0.0512 -0.5574
 5168SOL    HW116945   4.504   4.600   9.328  0.5603  0.1396  0.3092
 5168SOL    HW216946   4.577   4.725   9.283 -0.9623  0.1999 -2.1600
 5169SOL     OW16947   7.747   2.039   3.380  0.0627  0.1056 -0.0865
 5169SOL    HW116948   7.659   2.003   3.390 -0.5861  1.0380 -1.9165
 5169SOL    HW216949   7.800   1.966   3.349  0.4594 -0.9680  2.8361
 5170SOL     OW16950   4.368   5.228   3.221 -0.0906  0.1866 -0.3529
 5170SOL    HW116951   4.443   5.202   3.167 -2.1675 -2.0695 -2.3404
 5170SOL    HW216952   4.400   5.304   3.270  3.0552  0.1655 -2.1012
 5171SOL     OW16953   7.838   6.143  10.557 -0.2049 -0.1073 -0.1087
 5171SOL    HW116954   7.794   6.171  10.636 -1.6089 -1.0174 -0.5319
 5171SOL    HW216955   7.868   6.054  10.576  1.9592  0.6442  0.3379
 5172SOL     OW16956   2.573   2.750   1.624  0.3275  0.2769  1.0122
 5172SOL    HW116957   2.649   2.739   1.568  0.3214  1.8917  0.6332
 5172SOL    HW216958   2.506   2.786   1.566 -0.2143  0.3764  1.6834
 5173SOL     OW16959   5.904   4.962   6.269 -0.5895 -0.3006 -0.5205
 5173SOL    HW116960   5.975   4.899   6.283 -0.3188  0.2090  0.4265
 5173SOL    HW216961   5.937   5.019   6.199 -0.1590 -0.2108 -0.2484
 5174SOL     OW16962   5.827   4.260  12.297  0.5950  0.2795 -0.5749
 5174SOL    HW116963   5.850   4.261  12.204 -2.3764  1.8173 -1.4337
 5174SOL    HW216964   5.750   4.203  12.302 -2.1137  3.6305 -0.0334
 5175SOL     OW16965   0.019   5.268  10.247  0.8993  0.3212  0.0118
 5175SOL    HW116966  -0.063   5.230  10.213  0.3900  2.0125 -0.7896
 5175SOL    HW216967   0.048   5.207  10.314 -1.0036 -0.3618  0.2753
 5176SOL     OW16968   3.203   2.489   0.483  0.6545 -0.2674  0.1439
 5176SOL    HW116969   3.150   2.461   0.408 -0.1420  1.3043  0.0544
 5176SOL    HW216970   3.141   2.492   0.556  0.6222  1.3969  0.0893
 5177SOL     OW16971   1.965   1.653   1.826  0.2307  0.5075  0.0203
 5177SOL    HW116972   1.908   1.716   1.870 -1.3390  0.5879 -1.9505
 5177SOL    HW216973   1.948   1.667   1.733  1.4296 -1.4165 -0.5542
 5178SOL     OW16974   2.923   3.004   0.098 -0.0220  0.1828 -0.9019
 5178SOL    HW116975   2.992   2.940   0.117 -0.4715 -0.3695 -1.0860
 5178SOL    HW216976   2.846   2.951   0.079 -0.4547  0.7890 -0.8808
 5179SOL     OW16977   0.481   2.313  12.093 -0.2128 -0.3716  0.7152
 5179SOL    HW116978   0.550   2.379  12.099 -1.3787  0.9694 -0.2340
 5179SOL    HW216979   0.444   2.324  12.005 -0.5291 -2.2148  0.5728
 5180SOL     OW16980   1.797   1.107  10.201  0.3191  0.1785  0.2267
 5180SOL    HW116981   1.759   1.132  10.285 -0.4469 -0.2472  0.0146
 5180SOL    HW216982   1.886   1.078  10.222  0.2803  0.4911  0.8260
 5181SOL     OW16983   0.645   1.528   4.747 -0.5854  1.2978  0.4465
 5181SOL    HW116984   0.582   1.543   4.817  0.0056  0.5290  1.1694
 5181SOL    HW216985   0.649   1.433   4.739 -0.6733  1.3706 -0.6796
 5182SOL     OW16986   1.724   0.950   5.914  0.0813 -0.1429 -0.0932
 5182SOL    HW116987   1.685   1.034   5.939 -0.8597 -0.1456 -1.4135
 5182SOL    HW216988   1.660   0.911   5.854  2.7237  0.6256 -3.8318
 5183SOL     OW16989   1.183   5.970   9.564 -0.3064 -0.0751 -0.0708
 5183SOL    HW116990   1.156   6.035   9.629  0.5115 -0.4792  0.6914
 5183SOL    HW216991   1.216   6.022   9.491  1.9307  0.4272  1.2005
 5184SOL     OW16992   2.429   2.330   8.808  0.2764  0.4899 -0.0982
 5184SOL    HW116993   2.450   2.373   8.725  1.0904  0.8945  0.3068
 5184SOL    HW216994   2.513   2.306   8.845  0.0572  1.9096  1.4426
 5185SOL     OW16995   7.100   2.396   1.284  0.0061 -0.4860  0.3819
 5185SOL    HW116996   7.091   2.488   1.308  1.1556 -0.7695  2.0633
 5185SOL    HW216997   7.137   2.397   1.195  0.8731  0.6865  0.7410
 5186SOL     OW16998   0.859   5.825   6.736 -0.3757 -0.0577  0.1025
 5186SOL    HW116999   0.832   5.749   6.788  0.0132  0.1571  0.6242
 5186SOL    HW217000   0.781   5.880   6.733 -0.1534  0.3514  1.2321
 5187SOL     OW17001   3.035   6.547   7.532  0.2835  0.1365  0.0837
 5187SOL    HW117002   3.061   6.462   7.568  1.3503 -0.1561 -1.2795
 5187SOL    HW217003   3.077   6.611   7.589 -0.0564 -0.2603  0.7899
 5188SOL     OW17004   4.318   1.572   6.669  0.0296 -0.2279 -0.0659
 5188SOL    HW117005   4.267   1.510   6.616 -0.6989  0.1662  0.1569
 5188SOL    HW217006   4.409   1.555   6.646 -0.2501 -0.4051 -1.0784
 5189SOL     OW17007   6.806   7.075  10.909 -0.2937 -0.0321 -0.1136
 5189SOL    HW117008   6.758   6.992  10.918 -0.1648 -0.1438 -0.4523
 5189SOL    HW217009   6.891   7.049  10.874  0.4880  0.0217  1.6491
 5190SOL     OW17010   4.425   6.661   1.898 -0.1796  0.0150 -0.2774
 5190SOL    HW117011   4.472   6.708   1.829  1.9854  0.4476  1.3854
 5190SOL    HW217012   4.439   6.568   1.879 -1.1692  0.0748 -1.4014
 5191SOL     OW17013   4.530   1.665   1.686  0.3272  0.3484  0.0348
 5191SOL    HW117014   4.556   1.644   1.596  0.0556  1.2370 -0.2575
 5191SOL    HW217015   4.584   1.740   1.710  1.4902 -0.7888  1.1703
 5192SOL     OW17016   6.257   7.653  10.688  0.2826  0.4150 -0.0355
 5192SOL    HW117017   6.192   7.701  10.637  0.0701 -0.1180 -0.2833
 5192SOL    HW217018   6.334   7.709  10.688  0.8325 -0.2167 -2.2923
 5193SOL     OW17019   7.165   2.172   5.452 -0.4873  0.0620 -0.3164
 5193SOL    HW117020   7.246   2.159   5.403  0.9648 -0.2700  2.0024
 5193SOL    HW217021   7.147   2.087   5.493 -0.0839  0.9486  1.8561
 5194SOL     OW17022   5.280   6.060   7.241 -0.2017 -0.6835  0.4112
 5194SOL    HW117023   5.364   6.081   7.201 -0.6960 -1.2001 -0.9576
 5194SOL    HW217024   5.299   5.990   7.303  0.3496 -0.9130 -0.0106
 5195SOL     OW17025   2.237   2.623  11.349 -0.3291  0.6154  0.5858
 5195SOL    HW117026   2.238   2.530  11.373  0.0668  0.8458  1.4966
 5195SOL    HW217027   2.146   2.639  11.322 -0.5159  0.0710  0.8562
 5196SOL     OW17028   7.229   5.406  11.353 -0.3845  0.2227 -0.5444
 5196SOL    HW117029   7.230   5.482  11.411  2.2359 -0.5214  0.5548
 5196SOL    HW217030   7.229   5.442  11.265 -3.4624  1.3934 -0.1749
 5197SOL     OW17031   3.916   0.442   5.016  0.0383 -0.1898 -0.2704
 5197SOL    HW117032   3.857   0.438   4.942  3.0214  0.2435 -2.8926
 5197SOL    HW217033   3.954   0.354   5.022 -0.5931 -0.3957  1.1887
 5198SOL     OW17034   0.400   1.483   9.923  0.1300  0.7077 -0.0360
 5198SOL    HW117035   0.458   1.447   9.856 -0.8342  1.6686 -1.4345
 5198SOL    HW217036   0.427   1.574   9.933 -1.4410  1.3332 -1.1134
 5199SOL     OW17037   1.083   3.042   2.981 -0.1325  0.1541  0.0289
 5199SOL    HW117038   1.063   3.100   2.907  0.3191  1.4555  0.8864
 5199SOL    HW217039   1.025   2.966   2.968 -0.5262  0.6463 -1.2949
 5200SOL     OW17040   7.096   1.811   5.082  0.1249  0.6193 -0.2078
 5200SOL    HW117041   7.152   1.741   5.049 -0.8275  0.1216 -0.8146
 5200SOL    HW217042   7.111   1.811   5.177  0.4103 -0.1522 -0.2486
 5201SOL     OW17043   1.593   7.278   6.080 -0.0245 -0.5053 -0.0359
 5201SOL    HW117044   1.684   7.264   6.052 -0.1958  0.9832 -1.5209
 5201SOL    HW217045   1.594   7.365   6.121 -0.6455 -0.8018  0.6172
 5202SOL     OW17046   7.557   0.383   1.025 -0.4780 -0.2206  0.4894
 5202SOL    HW117047   7.472   0.423   1.008 -0.8105 -0.1676  2.0832
 5202SOL    HW217048   7.618   0.431   0.970 -0.7909  2.7697  2.4830
 5203SOL     OW17049   7.269   0.593   9.948 -0.8082  0.0226 -0.1601
 5203SOL    HW117050   7.299   0.510   9.985 -1.4867 -0.1781 -0.0327
 5203SOL    HW217051   7.349   0.640   9.924 -0.3112  0.2578  1.7812
 5204SOL     OW17052   6.456   6.942   8.969 -0.5774 -0.2918  0.5586
 5204SOL    HW117053   6.367   6.974   8.954  0.0758  0.4770 -2.3551
 5204SOL    HW217054   6.457   6.856   8.928  0.3241  0.2766 -0.6851
 5205SOL     OW17055   2.579   4.772   7.780  0.2959  0.0434  0.2374
 5205SOL    HW117056   2.671   4.771   7.805  0.5548 -3.7021 -0.2309
 5205SOL    HW217057   2.554   4.680   7.778 -3.3855  0.8857 -0.0848
 5206SOL     OW17058   1.145   5.398  12.372 -0.2967  0.1577 -0.1371
 5206SOL    HW117059   1.050   5.404  12.377 -0.2932  0.3792 -0.3058
 5206SOL    HW217060   1.176   5.484  12.401 -0.0957 -0.4086  1.4071
 5207SOL     OW17061   4.122   4.408   2.737  0.5905 -0.0786 -0.6520
 5207SOL    HW117062   4.035   4.447   2.738  0.6188  0.0737 -1.9353
 5207SOL    HW217063   4.151   4.411   2.828 -0.1760  1.1716 -0.4209
 5208SOL     OW17064   6.125   6.160   9.997  0.1293 -0.0258  0.4289
 5208SOL    HW117065   6.073   6.237  10.021 -1.7212 -0.8023 -0.7728
 5208SOL    HW217066   6.105   6.146   9.904  1.0507 -1.4835  0.4145
 5209SOL     OW17067   6.480   1.320  11.472  0.0651  0.0460  0.1362
 5209SOL    HW117068   6.564   1.364  11.457 -0.5303  1.7030  1.3863
 5209SOL    HW217069   6.504   1.228  11.488  1.5140  0.2280 -0.7411
 5210SOL     OW17070   2.405   6.043  11.959  0.1985  0.3909 -0.5790
 5210SOL    HW117071   2.376   6.021  11.870 -0.1333 -1.6497 -0.0009
 5210SOL    HW217072   2.361   5.980  12.016  1.7403  0.5421  0.8664
 5211SOL     OW17073   6.706   2.121   9.705  0.1847 -0.0615 -0.1075
 5211SOL    HW117074   6.688   2.153   9.794  0.2329  0.0143 -0.1247
 5211SOL    HW217075   6.634   2.060   9.686 -0.5465  0.9042 -0.5126
 5212SOL     OW17076   4.360   5.526   5.158 -0.2783  0.1424 -0.3745
 5212SOL    HW117077   4.410   5.557   5.082 -0.8054  1.3525 -0.2433
 5212SOL    HW217078   4.405   5.446   5.184 -0.1470 -0.3710 -2.0277
 5213SOL     OW17079   3.861   0.554   3.604 -0.1068 -0.1859  0.2444
 5213SOL    HW117080   3.894   0.640   3.631 -0.9528  0.3591 -0.3999
 5213SOL    HW217081   3.916   0.491   3.651  0.3154  0.7074  0.9750
 5214SOL     OW17082   2.853   1.380   1.980 -0.1260  0.3247  0.6449
 5214SOL    HW117083   2.820   1.421   1.901 -0.7920  1.3874  1.4568
 5214SOL    HW217084   2.916   1.443   2.015  2.8386 -1.5959 -0.8219
 5215SOL     OW17085   3.690   4.527   2.947 -0.1831 -0.5281  0.5359
 5215SOL    HW117086   3.609   4.566   2.980 -0.7646  0.7595 -2.1742
 5215SOL    HW217087   3.753   4.600   2.946 -0.2150 -0.4900 -1.1480
 5216SOL     OW17088   7.527   7.234   8.560  0.3697 -0.1335  0.2274
 5216SOL    HW117089   7.454   7.202   8.506 -0.1636 -1.0322  1.4362
 5216SOL    HW217090   7.576   7.292   8.502 -2.0440  1.6002 -0.2326
 5217SOL     OW17091   2.008   3.982  10.650  0.2787  0.3566  0.1476
 5217SOL    HW117092   2.064   3.934  10.589  0.5210  0.3270  0.3886
 5217SOL    HW217093   2.056   3.980  10.733 -0.3951 -0.2473  0.5355
 5218SOL     OW17094   4.758   4.340   9.680 -0.0246  0.2833 -0.0171
 5218SOL    HW117095   4.686   4.336   9.743  0.8315 -0.9478  0.9341
 5218SOL    HW217096   4.758   4.431   9.649 -0.7244  0.8140  1.4531
 5219SOL     OW17097   0.469   5.333  11.514  0.5839  0.3350 -0.2438
 5219SOL    HW117098   0.488   5.329  11.421  2.3850 -0.3788  0.1133
 5219SOL    HW217099   0.513   5.413  11.544  0.3096  0.3793  0.0473
 5220SOL     OW17100   1.389   6.742   5.054 -0.4184 -0.4587 -0.2131
 5220SOL    HW117101   1.391   6.646   5.053 -0.4985 -0.4923  1.1913
 5220SOL    HW217102   1.351   6.766   4.970  2.7913 -1.5431 -2.1426
 5221SOL     OW17103   0.560   1.997   5.597 -0.5511  0.6633 -0.1308
 5221SOL    HW117104   0.559   1.999   5.693 -0.9854  0.9198 -0.1369
 5221SOL    HW217105   0.474   1.960   5.574 -0.0920 -0.2537 -0.4040
 5222SOL     OW17106   6.426   2.117  10.224  0.0152  0.3855  0.0911
 5222SOL    HW117107   6.449   2.153  10.138 -1.6272  0.7104 -0.2569
 5222SOL    HW217108   6.400   2.194  10.275  1.7690  0.2992  1.1882
 5223SOL     OW17109   5.611   1.136   1.409  0.1947  0.2360  0.0965
 5223SOL    HW117110   5.701   1.125   1.378  0.0882 -1.8348  0.4359
 5223SOL    HW217111   5.621   1.170   1.498  0.5553  2.2582 -0.6527
 5224SOL     OW17112   5.567   4.378   9.546  0.0486 -0.4560 -0.5731
 5224SOL    HW117113   5.581   4.472   9.553 -0.3757 -0.3398 -1.1665
 5224SOL    HW217114   5.564   4.347   9.637 -0.0639  0.1419 -0.3692
 5225SOL     OW17115   7.677   4.386   1.456  0.2581  0.5635  0.1856
 5225SOL    HW117116   7.709   4.299   1.479 -1.7538 -0.3641 -0.3048
 5225SOL    HW217117   7.681   4.389   1.361  1.8940  1.6930  0.2515
 5226SOL     OW17118   6.852   2.949   5.429  0.0457  0.2965  0.0896
 5226SOL    HW117119   6.922   3.012   5.419 -0.4168  0.6732 -1.0115
 5226SOL    HW217120   6.796   2.963   5.352 -1.1594 -0.0750  0.8668
 5227SOL     OW17121   0.018   1.651   0.223  0.5489 -0.5018  0.6709
 5227SOL    HW117122   0.032   1.696   0.306  1.8223  1.4070 -0.4921
 5227SOL    HW217123  -0.053   1.700   0.181  2.7972  1.4063 -1.1597
 5228SOL     OW17124   4.565   6.232   5.290  0.1513  0.6225 -0.0735
 5228SOL    HW117125   4.567   6.163   5.224  1.7326  0.7764 -0.2219
 5228SOL    HW217126   4.583   6.186   5.373  0.0323  0.6989 -0.0047
 5229SOL     OW17127   0.407   4.198   6.967  0.1050  0.0779  0.6568
 5229SOL    HW117128   0.345   4.271   6.961  1.4669  1.2384 -0.0219
 5229SOL    HW217129   0.480   4.233   7.019  0.8134 -0.7524  0.2472
 5230SOL     OW17130   1.979   1.117   6.088 -0.5569 -0.6121  0.1143
 5230SOL    HW117131   2.033   1.156   6.020 -1.5982 -1.3786 -1.1949
 5230SOL    HW217132   2.034   1.121   6.167  0.6040  0.4574 -0.6974
 5231SOL     OW17133   6.704   6.716  10.642  0.0009 -0.5321 -0.1953
 5231SOL    HW117134   6.735   6.716  10.552 -0.8949 -0.0774 -0.5117
 5231SOL    HW217135   6.727   6.629  10.675  1.5900 -0.2192 -0.4041
 5232SOL     OW17136   1.216   3.184   5.965  0.4909  0.1864 -0.2076
 5232SOL    HW117137   1.241   3.168   5.874 -1.3749  1.6759 -1.0492
 5232SOL    HW217138   1.128   3.148   5.972  0.3924  0.6039  0.8650
 5233SOL     OW17139   1.702   1.212   1.155 -0.0540 -0.5596 -0.5179
 5233SOL    HW117140   1.749   1.129   1.150  0.3773 -0.4117  0.6870
 5233SOL    HW217141   1.754   1.266   1.214 -1.3450 -0.1342  0.2802
 5234SOL     OW17142   7.214   5.001  10.100 -0.0769  0.0727  0.1240
 5234SOL    HW117143   7.283   4.938  10.124 -0.5115 -0.9449 -1.1676
 5234SOL    HW217144   7.237   5.030  10.012 -1.7415 -0.9860 -0.7130
 5235SOL     OW17145   4.328   2.785   1.096  0.1444 -0.1924  0.2282
 5235SOL    HW117146   4.386   2.712   1.075 -0.4814 -0.9557  1.0613
 5235SOL    HW217147   4.243   2.761   1.059  0.3278  0.9174 -0.9820
 5236SOL     OW17148   2.498   1.602   9.872 -0.3105  0.3595  0.6149
 5236SOL    HW117149   2.586   1.631   9.849  0.1975  0.3201  2.3361
 5236SOL    HW217150   2.440   1.671   9.841  0.2092 -0.0604 -1.3867
 5237SOL     OW17151   4.276   7.878   3.484  0.2636  0.2771 -0.0172
 5237SOL    HW117152   4.327   7.892   3.563 -0.1618  1.5064  0.0698
 5237SOL    HW217153   4.185   7.889   3.512  0.1783  3.1644 -1.0390
 5238SOL     OW17154   7.740   7.691   4.292 -0.3707 -0.2464 -0.0108
 5238SOL    HW117155   7.664   7.695   4.234 -0.7977  0.7492  0.6000
 5238SOL    HW217156   7.720   7.620   4.353 -0.9283  0.1644  0.2948
 5239SOL     OW17157   0.479   0.109   2.702  0.1651 -0.4676  0.0711
 5239SOL    HW117158   0.520   0.109   2.615  0.8574 -0.0630  0.3926
 5239SOL    HW217159   0.501   0.024   2.738 -1.7061 -1.4124 -0.8621
 5240SOL     OW17160   4.633   0.523   1.176 -0.5521  0.3309 -0.3301
 5240SOL    HW117161   4.649   0.618   1.175 -0.8613  0.4292  1.2504
 5240SOL    HW217162   4.538   0.514   1.174 -0.5490  0.0884  0.5068
 5241SOL     OW17163   5.754   6.489  11.676  0.9906 -0.6635  0.0626
 5241SOL    HW117164   5.687   6.550  11.705  2.5275  0.7970  0.7187
 5241SOL    HW217165   5.729   6.467  11.586  0.5071  1.1615 -0.2962
 5242SOL     OW17166   2.846   6.895  11.309 -0.4493 -0.0164  0.1846
 5242SOL    HW117167   2.810   6.983  11.293 -1.0078 -0.2030  0.3998
 5242SOL    HW217168   2.926   6.911  11.359  0.4371  0.4768 -1.3172
 5243SOL     OW17169   2.764   5.543   6.772  0.3587  0.3726 -0.0029
 5243SOL    HW117170   2.732   5.603   6.839  2.5256 -0.1621  1.6209
 5243SOL    HW217171   2.846   5.583   6.741  0.1885 -0.1735 -1.2190
 5244SOL     OW17172   2.618   5.224   2.594 -0.3149  0.4492  0.3733
 5244SOL    HW117173   2.681   5.229   2.665  1.3182  2.0524 -1.0929
 5244SOL    HW217174   2.631   5.137   2.556 -1.0354 -0.3274  1.8178
 5245SOL     OW17175   6.539   6.358   3.076  0.4571 -0.3968  0.5791
 5245SOL    HW117176   6.505   6.390   3.160  0.1607 -0.7414  0.5949
 5245SOL    HW217177   6.519   6.427   3.014 -2.0251 -1.3431  0.1902
 5246SOL     OW17178   7.638   1.016   6.003  0.2104  0.1086  0.5076
 5246SOL    HW117179   7.614   1.044   5.915  1.2786  0.8711  0.4297
 5246SOL    HW217180   7.597   0.930   6.013  2.0391 -1.1420 -1.6672
 5247SOL     OW17181   7.683   7.175   3.713 -0.3406 -0.0672 -0.2939
 5247SOL    HW117182   7.750   7.233   3.676 -0.0520  0.3332  0.8366
 5247SOL    HW217183   7.666   7.111   3.643 -0.7642  1.4298 -1.6026
 5248SOL     OW17184   4.929   7.896  11.358  0.4813 -0.1047 -0.1327
 5248SOL    HW117185   5.006   7.840  11.343  0.2729 -0.8027  1.2078
 5248SOL    HW217186   4.966   7.984  11.368  1.0781 -0.3663  0.0746
 5249SOL     OW17187   0.191   6.329   1.383 -0.8017  0.1421  0.2213
 5249SOL    HW117188   0.194   6.254   1.324  1.5967  0.6350 -0.3962
 5249SOL    HW217189   0.227   6.295   1.466  0.7609  0.6787 -0.2079
 5250SOL     OW17190   5.266   3.324   0.741  0.5853 -0.1561  0.3286
 5250SOL    HW117191   5.201   3.387   0.771  0.7768 -0.0417  0.5051
 5250SOL    HW217192   5.223   3.239   0.750 -1.4916  0.1411 -4.3478
 5251SOL     OW17193   5.227   7.156   9.120 -0.2282  0.4064  0.4513
 5251SOL    HW117194   5.280   7.077   9.110  1.3853  1.5577 -0.4546
 5251SOL    HW217195   5.149   7.139   9.066 -0.9847 -1.3806  1.9593
 5252SOL     OW17196   6.289   2.372  10.646 -0.1333 -0.3164  0.1598
 5252SOL    HW117197   6.355   2.305  10.627 -1.6245 -1.6612 -0.5228
 5252SOL    HW217198   6.298   2.436  10.575  1.4118  0.3434  0.9067
 5253SOL     OW17199   4.861   5.262  11.793 -0.5065  0.7268  0.3911
 5253SOL    HW117200   4.814   5.192  11.839  1.0092 -0.5400  0.1132
 5253SOL    HW217201   4.893   5.220  11.713 -0.4200  2.0361 -0.2828
 5254SOL     OW17202   0.258   0.081   6.003  0.1762  0.1633  0.0509
 5254SOL    HW117203   0.281  -0.012   6.014 -1.3658 -0.1035  1.4433
 5254SOL    HW217204   0.211   0.084   5.919 -2.0396 -0.8449  1.1835
 5255SOL     OW17205   6.159   5.331   8.050  0.6194  0.1935 -0.2160
 5255SOL    HW117206   6.117   5.368   8.128 -0.4256 -0.9166 -0.2175
 5255SOL    HW217207   6.109   5.369   7.977  0.7257  0.1799 -0.2958
 5256SOL     OW17208   5.701   3.303   0.454  0.3332  0.0281  0.1006
 5256SOL    HW117209   5.667   3.242   0.520 -2.0221 -0.8808 -1.8011
 5256SOL    HW217210   5.624   3.354   0.427  1.0302 -0.1168 -2.3982
 5257SOL     OW17211   5.809   3.349  10.953  0.6105  0.5423  0.5336
 5257SOL    HW117212   5.776   3.432  10.920 -1.3137 -0.2561  0.3260
 5257SOL    HW217213   5.874   3.321  10.889  1.1662  1.7796  0.5298
 5258SOL     OW17214   3.122   3.061  10.682 -0.1324  0.3268  0.0368
 5258SOL    HW117215   3.179   2.996  10.722 -0.3843  0.8695  1.3427
 5258SOL    HW217216   3.033   3.031  10.702 -0.2846  0.0953 -0.9721
 5259SOL     OW17217   4.600   6.504   7.255  0.7475 -0.3800 -0.2373
 5259SOL    HW117218   4.620   6.496   7.348  1.4445  0.8595 -0.2568
 5259SOL    HW217219   4.672   6.555   7.219 -0.9930  1.8216 -0.8651
 5260SOL     OW17220   4.854   2.419   6.694  0.5407  0.3862 -0.2917
 5260SOL    HW117221   4.844   2.324   6.701 -0.9172  0.4900 -0.4957
 5260SOL    HW217222   4.820   2.453   6.777  1.4744  0.7207 -0.0344
 5261SOL     OW17223   6.146   7.305  11.361 -0.0726  0.1821 -0.6250
 5261SOL    HW117224   6.230   7.281  11.321  1.0909 -0.7285  2.1097
 5261SOL    HW217225   6.166   7.381  11.415 -0.5794 -0.9945  1.2911
 5262SOL     OW17226   3.023   4.858   7.247 -0.7856 -0.0143 -0.0144
 5262SOL    HW117227   3.011   4.895   7.334 -1.1412 -1.1212  0.4269
 5262SOL    HW217228   3.112   4.824   7.248 -1.0062 -0.6028  0.1536
 5263SOL     OW17229   6.622   4.713   1.597 -0.0237 -0.0649  0.4378
 5263SOL    HW117230   6.645   4.685   1.686 -0.9510 -3.0985 -0.1494
 5263SOL    HW217231   6.610   4.631   1.549 -4.0861  1.3089 -1.3217
 5264SOL     OW17232   3.249   1.511   7.380  0.0763 -0.5446 -0.3211
 5264SOL    HW117233   3.238   1.589   7.435  0.8214  0.0410 -0.9908
 5264SOL    HW217234   3.159   1.486   7.357 -0.1587  0.3135 -0.3831
 5265SOL     OW17235   7.315   4.456  10.290  0.5492 -0.6345  0.0516
 5265SOL    HW117236   7.390   4.482  10.342  0.6468 -0.4114 -0.2017
 5265SOL    HW217237   7.258   4.410  10.352  1.0887 -1.1907  0.1473
 5266SOL     OW17238   7.134   6.616   3.981  0.3557  0.8767 -0.0147
 5266SOL    HW117239   7.139   6.525   4.009  1.1164  0.8041 -0.3539
 5266SOL    HW217240   7.052   6.648   4.018 -1.4839 -0.7826 -2.3638
 5267SOL     OW17241   6.394   0.855   9.854  0.4302 -0.0491  0.3284
 5267SOL    HW117242   6.387   0.928   9.794  2.2608  0.1997  0.3677
 5267SOL    HW217243   6.433   0.784   9.802 -1.0362 -0.9230  0.3686
 5268SOL     OW17244   6.127   7.041   9.473  0.2720 -0.4359 -0.3011
 5268SOL    HW117245   6.050   7.033   9.530 -0.0163  0.7460 -0.4824
 5268SOL    HW217246   6.122   6.965   9.415  0.1271 -1.2227  0.7023
 5269SOL     OW17247   6.870   3.710   6.536 -0.2100 -0.0583 -0.3281
 5269SOL    HW117248   6.823   3.658   6.601 -2.4914  2.4296  0.2149
 5269SOL    HW217249   6.956   3.724   6.575 -0.7760 -0.4772  1.1742
 5270SOL     OW17250   0.930   0.079   2.298 -0.5755  0.2161 -0.3421
 5270SOL    HW117251   0.973   0.036   2.224  1.3714  0.5745  0.5327
 5270SOL    HW217252   0.903   0.164   2.264 -0.1358  0.1879 -0.7665
 5271SOL     OW17253   7.275   3.200   4.927 -0.0205  0.1092 -0.2255
 5271SOL    HW117254   7.202   3.238   4.975  0.5492  0.7232  0.1780
 5271SOL    HW217255   7.308   3.272   4.873  0.5965 -0.0163 -0.0236
 5272SOL     OW17256   3.468   1.229   8.555 -0.6608  0.1161  0.6290
 5272SOL    HW117257   3.406   1.292   8.518 -1.2237 -0.5501  0.4148
 5272SOL    HW217258   3.533   1.216   8.486 -0.0448  1.1094  0.9959
 5273SOL     OW17259   3.030   2.575   1.516  0.0070  0.1991  0.9370
 5273SOL    HW117260   3.042   2.507   1.450 -0.2926  1.1325 -0.1131
 5273SOL    HW217261   3.116   2.616   1.525  0.0530  0.0574  1.1392
 5274SOL     OW17262   2.686   3.280  12.084  0.4712  0.4126 -0.1118
 5274SOL    HW117263   2.649   3.365  12.110  0.2973  0.2215  0.2691
 5274SOL    HW217264   2.781   3.293  12.089  0.4401  0.4685  0.3125
 5275SOL     OW17265   0.089   4.221   6.809  0.1622  0.3841  0.3600
 5275SOL    HW117266   0.124   4.281   6.875  0.2041  0.8933 -0.1082
 5275SOL    HW217267   0.094   4.135   6.848 -0.7783  0.7931  1.4266
 5276SOL     OW17268   7.919   0.481  10.587  0.0703 -0.3021 -0.2705
 5276SOL    HW117269   7.969   0.454  10.510  2.6001  3.5758 -0.3320
 5276SOL    HW217270   7.834   0.507  10.553  0.3675 -0.7487 -1.3924
 5277SOL     OW17271   5.736   4.903   9.307 -0.5794  0.1388  0.6190
 5277SOL    HW117272   5.707   4.945   9.226  0.8623  0.8849  0.4635
 5277SOL    HW217273   5.666   4.922   9.370 -0.8209  1.2055  0.0593
 5278SOL     OW17274   4.878   6.291   7.754  0.4193  0.3713  0.3068
 5278SOL    HW117275   4.881   6.287   7.658  0.2201  0.0316  0.3126
 5278SOL    HW217276   4.805   6.234   7.778  1.0876 -0.3391  0.7028
 5279SOL     OW17277   0.688   0.099   6.766 -0.5084  0.8180 -0.5380
 5279SOL    HW117278   0.779   0.079   6.789  0.2908  0.6542 -3.4337
 5279SOL    HW217279   0.644   0.014   6.764 -0.3144  0.7191 -0.6327
 5280SOL     OW17280   7.401   6.742   9.694 -0.1282 -0.0800  0.9406
 5280SOL    HW117281   7.480   6.793   9.677  0.0914 -0.9497 -0.8022
 5280SOL    HW217282   7.336   6.808   9.719  0.4682  0.9383 -0.0917
 5281SOL     OW17283   6.504   7.371   9.422  0.3574 -0.3555 -0.2749
 5281SOL    HW117284   6.553   7.351   9.342 -1.6468 -1.8986 -1.1802
 5281SOL    HW217285   6.558   7.334   9.493  3.1444  2.7037 -0.5365
 5282SOL     OW17286   6.140   0.897  11.682 -0.5899  0.1963 -0.1698
 5282SOL    HW117287   6.210   0.958  11.658 -0.4923  0.7956  1.5135
 5282SOL    HW217288   6.178   0.810  11.670  0.6482  0.5130  1.1864
 5283SOL     OW17289   7.430   4.842   2.934  0.1442 -0.2842 -0.2029
 5283SOL    HW117290   7.521   4.869   2.945  0.2147 -0.4543 -0.3573
 5283SOL    HW217291   7.389   4.859   3.018  0.2408  0.0979 -0.2310
 5284SOL     OW17292   1.668   2.898   2.769  0.0497 -0.4024  0.2723
 5284SOL    HW117293   1.736   2.832   2.783  0.2813 -0.2095  0.0593
 5284SOL    HW217294   1.708   2.980   2.796 -0.6974 -0.5268  1.8768
 5285SOL     OW17295   2.185   5.624   6.682  0.0881 -0.3184 -0.6359
 5285SOL    HW117296   2.269   5.593   6.647  0.0042 -0.2691 -0.8869
 5285SOL    HW217297   2.148   5.547   6.726  0.1448 -0.4154 -0.7549
 5286SOL     OW17298   0.635   0.346  10.439  0.1495  0.1782  0.3468
 5286SOL    HW117299   0.685   0.386  10.368  0.6051 -0.3014  0.3935
 5286SOL    HW217300   0.558   0.309  10.396  0.9529 -1.0684 -0.0922
 5287SOL     OW17301   2.258   4.813   5.192 -0.0317  0.0718  0.2523
 5287SOL    HW117302   2.308   4.778   5.266  1.0832  0.9375 -0.0524
 5287SOL    HW217303   2.312   4.886   5.160 -0.0631 -0.7772 -1.9206
 5288SOL     OW17304   0.921   4.154   9.986  0.3591  0.4304  0.1213
 5288SOL    HW117305   1.017   4.162   9.985  0.3901  0.0491 -0.1947
 5288SOL    HW217306   0.897   4.148   9.894  0.3172 -2.5429  0.2203
 5289SOL     OW17307   2.800   5.928   3.128  0.4500  0.2069 -0.3818
 5289SOL    HW117308   2.843   5.897   3.207  1.5214  1.6301 -0.3592
 5289SOL    HW217309   2.726   5.869   3.115  1.0354 -0.8474  0.9295
 5290SOL     OW17310   0.887   7.876   0.795  0.2681  0.3555  0.0559
 5290SOL    HW117311   0.949   7.814   0.757 -0.7982 -1.0487  0.5099
 5290SOL    HW217312   0.812   7.875   0.734  0.5014  1.7281 -0.2838
 5291SOL     OW17313   0.716   5.670   6.490  0.3611  0.2299  0.4516
 5291SOL    HW117314   0.799   5.623   6.498  0.1931  0.0234  0.9933
 5291SOL    HW217315   0.681   5.641   6.405  1.4238  1.2704 -0.3783
 5292SOL     OW17316   1.388   3.513   7.066 -0.0092 -0.1434  0.1372
 5292SOL    HW117317   1.330   3.456   7.015 -0.9187  1.3489 -0.5669
 5292SOL    HW217318   1.397   3.469   7.151 -0.0165 -1.7174 -0.6447
 5293SOL     OW17319   4.824   3.455   3.929  0.1080 -0.0933 -0.0753
 5293SOL    HW117320   4.812   3.549   3.916 -0.3938 -0.3495 -1.6359
 5293SOL    HW217321   4.794   3.415   3.848  1.8119 -1.5095 -0.0685
 5294SOL     OW17322   2.832   1.078   7.605  0.4364 -0.0713 -0.0337
 5294SOL    HW117323   2.855   1.020   7.678  1.3101 -0.7197 -0.8071
 5294SOL    HW217324   2.782   1.149   7.646  1.1871 -0.2501  1.2397
 5295SOL     OW17325   5.960   2.808   6.569  0.5872  0.1600 -0.3291
 5295SOL    HW117326   5.950   2.901   6.553  1.4947  0.3255 -0.0084
 5295SOL    HW217327   5.946   2.797   6.663 -1.7476 -0.3755 -0.6730
 5296SOL     OW17328   6.602   0.050   1.685  0.3496 -0.1124 -0.3403
 5296SOL    HW117329   6.523   0.069   1.736 -0.7986 -2.8995 -0.8859
 5296SOL    HW217330   6.615   0.127   1.631 -1.5572  0.7359  0.3357
 5297SOL     OW17331   1.155   3.041   2.058  0.1878  0.4790 -0.2720
 5297SOL    HW117332   1.228   3.059   2.116  0.0814 -0.6846  0.2510
 5297SOL    HW217333   1.156   2.946   2.046 -1.4163  0.3966  0.0097
 5298SOL     OW17334   7.524   2.694   5.771  0.4246  0.3184 -0.4551
 5298SOL    HW117335   7.562   2.607   5.781 -1.9146 -0.5422  2.3162
 5298SOL    HW217336   7.597   2.754   5.780  1.7925 -1.3081 -0.2080
 5299SOL     OW17337   4.289   6.432   8.396  0.4093 -0.0683 -0.6240
 5299SOL    HW117338   4.252   6.437   8.484  1.4228 -0.4988 -0.1587
 5299SOL    HW217339   4.304   6.523   8.371  1.2211  0.0156  0.1370
 5300SOL     OW17340   5.643   7.022   3.807  0.3130 -0.3851  0.3824
 5300SOL    HW117341   5.721   7.057   3.763  1.5456 -0.7526  2.1269
 5300SOL    HW217342   5.666   6.932   3.828 -0.2084 -0.2265  1.7256
 5301SOL     OW17343   4.849   3.318   3.156  0.0147 -0.1529 -0.0378
 5301SOL    HW117344   4.883   3.368   3.082 -0.0269 -0.4993 -0.2941
 5301SOL    HW217345   4.902   3.346   3.231  0.1312  0.1156 -0.2200
 5302SOL     OW17346   5.819   2.143  12.082  0.8375  0.3474 -0.3216
 5302SOL    HW117347   5.763   2.206  12.127  0.5940 -0.2154  0.1782
 5302SOL    HW217348   5.774   2.060  12.092  2.3854 -0.3645  1.2600
 5303SOL     OW17349   3.096   7.201   1.385  0.1092  0.6605 -0.0667
 5303SOL    HW117350   3.179   7.232   1.423 -0.2792  0.6517  0.8191
 5303SOL    HW217351   3.116   7.184   1.293  0.9182  1.3221 -0.0223
 5304SOL     OW17352   5.459   3.545   7.177 -0.1935  0.0919 -0.0158
 5304SOL    HW117353   5.501   3.523   7.260  1.1293  1.5056 -0.2618
 5304SOL    HW217354   5.520   3.604   7.134 -0.9875 -0.3576 -1.8825
 5305SOL     OW17355   5.020   4.512  11.024 -0.2277 -0.1000  0.2152
 5305SOL    HW117356   5.000   4.509  11.118  0.5935 -0.5647  0.3800
 5305SOL    HW217357   5.090   4.449  11.012 -0.4067 -0.1296 -0.7431
 5306SOL     OW17358   4.459   3.292  11.550 -0.7088 -0.1405  0.4811
 5306SOL    HW117359   4.386   3.354  11.550 -0.7331 -0.1539 -0.4303
 5306SOL    HW217360   4.433   3.224  11.487 -0.1143 -0.3857  0.4918
 5307SOL     OW17361   3.687   5.540   2.266 -0.7843 -0.7226 -0.1611
 5307SOL    HW117362   3.599   5.512   2.240 -1.0376 -0.1011  0.0175
 5307SOL    HW217363   3.685   5.636   2.257 -0.4687 -0.6067  0.9009
 5308SOL     OW17364   1.399   7.791  10.258  0.3561 -0.3281 -0.2613
 5308SOL    HW117365   1.414   7.740  10.338 -2.3937 -0.9686 -0.0660
 5308SOL    HW217366   1.466   7.860  10.261  1.2366 -1.1859  1.8416
 5309SOL     OW17367   0.134   4.586  10.351  0.1838  0.2423  0.0337
 5309SOL    HW117368   0.040   4.587  10.330  0.5076 -1.1175 -1.6199
 5309SOL    HW217369   0.137   4.614  10.442 -1.8048  0.6817  0.0261
 5310SOL     OW17370   1.591   6.809   9.680  0.2216  0.2633 -0.4502
 5310SOL    HW117371   1.636   6.752   9.617 -0.6851 -0.6252 -0.3149
 5310SOL    HW217372   1.647   6.809   9.757 -0.1959 -1.1717 -0.1306
 5311SOL     OW17373   6.019   0.799   5.329  0.6792  0.1907  0.1289
 5311SOL    HW117374   6.054   0.842   5.407 -0.5122 -0.5998  1.1531
 5311SOL    HW217375   6.049   0.853   5.256  3.7345 -0.2857  0.9067
 5312SOL     OW17376   7.582   3.904   7.683  0.1819  0.0344 -0.1187
 5312SOL    HW117377   7.495   3.941   7.696  0.0860 -0.9332  2.6167
 5312SOL    HW217378   7.639   3.954   7.742  1.3225  0.0295 -1.1687
 5313SOL     OW17379   0.175   1.932   0.202  0.5540  0.6989  0.2012
 5313SOL    HW117380   0.098   1.914   0.256 -0.7969  2.0586 -1.1585
 5313SOL    HW217381   0.201   2.021   0.227  0.8091  0.7756 -0.3171
 5314SOL     OW17382   5.850   6.349   1.996 -0.5928 -0.3736  0.1741
 5314SOL    HW117383   5.847   6.440   2.024 -3.0050 -0.4180  0.2411
 5314SOL    HW217384   5.759   6.326   1.979  0.1172 -2.2879 -1.4697
 5315SOL     OW17385   0.257   4.629   4.184  0.3026  0.1914  0.4101
 5315SOL    HW117386   0.184   4.622   4.245 -0.2090 -0.9529 -0.2879
 5315SOL    HW217387   0.281   4.721   4.185 -0.1198  0.3090  1.8227
 5316SOL     OW17388   2.672   7.176   5.170  0.3699  0.3563 -0.1422
 5316SOL    HW117389   2.645   7.226   5.247 -1.4694 -0.9864  0.1483
 5316SOL    HW217390   2.677   7.241   5.100  0.5013  1.3337  0.7433
 5317SOL     OW17391   1.411   6.798   1.602 -0.0811  0.1270 -0.2334
 5317SOL    HW117392   1.384   6.862   1.668  1.2764  0.8952 -0.3851
 5317SOL    HW217393   1.506   6.807   1.597  0.1331 -1.7458 -0.4409
 5318SOL     OW17394   4.409   4.940   5.989  0.4115 -0.2724  0.1031
 5318SOL    HW117395   4.477   5.007   5.992  0.1422  0.0012  0.1946
 5318SOL    HW217396   4.357   4.961   5.912  0.3499 -0.4040  0.1069
 5319SOL     OW17397   7.926   1.826   0.438  0.4402  0.0269  0.2644
 5319SOL    HW117398   7.907   1.909   0.482 -1.6975 -0.2082 -0.1032
 5319SOL    HW217399   7.951   1.766   0.509  3.0339  1.1629  0.4343
 5320SOL     OW17400   6.780   4.995   6.051  0.5904  0.3708 -0.5665
 5320SOL    HW117401   6.769   4.900   6.056  1.8643  0.2562  2.3542
 5320SOL    HW217402   6.714   5.030   6.112 -0.8904  1.5446 -2.7248
 5321SOL     OW17403   3.084   4.721   8.577  0.4223 -0.2375  0.1880
 5321SOL    HW117404   3.083   4.638   8.529  1.6119 -0.3468  0.3155
 5321SOL    HW217405   2.993   4.735   8.603  0.0470 -1.0283 -0.6345
 5322SOL     OW17406   2.626   1.314   2.122 -0.3933  0.1158 -0.7207
 5322SOL    HW117407   2.698   1.352   2.073 -0.1536 -1.5388 -1.7143
 5322SOL    HW217408   2.570   1.389   2.145  2.0600  1.6020  0.9299
 5323SOL     OW17409   7.507   1.313   8.037  0.0743  0.3218 -0.2931
 5323SOL    HW117410   7.556   1.363   8.102  0.7876 -0.5291 -0.1408
 5323SOL    HW217411   7.483   1.232   8.082 -0.5039  0.2519 -0.7172
 5324SOL     OW17412   5.154   1.012  11.548 -0.3551 -0.2978 -0.0581
 5324SOL    HW117413   5.242   1.045  11.532 -0.4068  0.2770  0.7515
 5324SOL    HW217414   5.168   0.928  11.592 -0.2134 -0.3698 -0.2406
 5325SOL     OW17415   1.500   2.225   1.310 -0.3053  0.1136 -0.9263
 5325SOL    HW117416   1.486   2.312   1.346  0.7400 -0.2372  0.4078
 5325SOL    HW217417   1.594   2.221   1.291 -0.5883 -0.2214 -2.4060
 5326SOL     OW17418   4.751   0.936   6.126 -0.4933  0.6192 -0.0597
 5326SOL    HW117419   4.684   0.882   6.168 -0.2278  0.2104 -0.1543
 5326SOL    HW217420   4.719   0.951   6.037 -0.0228 -0.3858 -0.4184
 5327SOL     OW17421   4.648   1.754   3.405  0.2426 -0.1876 -0.3374
 5327SOL    HW117422   4.572   1.698   3.413  0.1076 -0.1571 -1.2384
 5327SOL    HW217423   4.660   1.793   3.492  0.1109 -1.3035  0.1969
 5328SOL     OW17424   1.677   5.664   3.484  0.4847 -0.4508 -0.5402
 5328SOL    HW117425   1.675   5.758   3.498 -1.1709 -0.5974  0.5206
 5328SOL    HW217426   1.767   5.638   3.504  1.0948  0.9464 -1.3343
 5329SOL     OW17427   5.995   5.453  11.301 -0.3234  0.6016  0.0045
 5329SOL    HW117428   5.907   5.430  11.273 -0.1994  0.1085  0.0118
 5329SOL    HW217429   6.015   5.392  11.372  1.0587 -1.1525 -1.7967
 5330SOL     OW17430   5.811   4.189   5.731  0.3219  0.3737  0.1410
 5330SOL    HW117431   5.731   4.143   5.708 -0.2782  0.7481  1.4107
 5330SOL    HW217432   5.815   4.185   5.826  2.0816 -0.0720  0.0833
 5331SOL     OW17433   3.252   5.485   4.905  0.1149 -0.2680 -0.1518
 5331SOL    HW117434   3.221   5.464   4.817  1.1943  1.2752 -0.9404
 5331SOL    HW217435   3.213   5.570   4.925  2.0668  0.7156 -0.3085
 5332SOL     OW17436   6.944   5.813   3.320  0.1384 -0.2490  0.8712
 5332SOL    HW117437   7.040   5.814   3.321  0.1360  0.8317  1.0538
 5332SOL    HW217438   6.919   5.793   3.411  0.2097  1.0480  1.2065
 5333SOL     OW17439   7.131   0.003   8.916 -0.3143  0.2483 -0.3278
 5333SOL    HW117440   7.091   0.034   8.997  0.6586 -0.3389  0.4050
 5333SOL    HW217441   7.121   0.075   8.854  1.8840  2.0857  1.3020
 5334SOL     OW17442   4.526   0.271  11.023 -0.0850 -0.4654 -0.2277
 5334SOL    HW117443   4.459   0.242  10.961 -1.4810 -1.2810  1.5768
 5334SOL    HW217444   4.570   0.191  11.050 -2.0725 -0.7446  2.6449
 5335SOL     OW17445   4.844   1.885   9.259 -0.3437 -0.6625  0.2121
 5335SOL    HW117446   4.844   1.862   9.166  0.5241  0.5096 -0.0954
 5335SOL    HW217447   4.931   1.861   9.290 -0.4346 -0.5189  0.5908
 5336SOL     OW17448   3.664   5.726   5.563 -0.5150  0.2211  0.1974
 5336SOL    HW117449   3.594   5.773   5.518 -0.4061  0.6689  0.4903
 5336SOL    HW217450   3.709   5.792   5.615  1.3424  0.3547 -1.4394
 5337SOL     OW17451   0.016   2.316   3.180 -0.4460 -0.0195  0.0074
 5337SOL    HW117452   0.102   2.342   3.214 -0.1413  0.5726 -1.1380
 5337SOL    HW217453   0.029   2.226   3.150 -0.5638 -0.3456  0.9110
 5338SOL     OW17454   0.074   4.883   0.985 -0.0451 -0.4128  0.7558
 5338SOL    HW117455   0.092   4.808   1.042 -1.5186 -1.0051  0.4787
 5338SOL    HW217456   0.066   4.844   0.898  3.2218  0.5858 -0.1612
 5339SOL     OW17457   7.873   4.169   2.260  0.6007  0.0150  0.0082
 5339SOL    HW117458   7.890   4.138   2.348  0.6986  1.1411  0.4032
 5339SOL    HW217459   7.959   4.170   2.217  0.3990 -1.6336 -0.4951
 5340SOL     OW17460   6.483   2.072  11.337 -0.4745 -0.9358  0.3425
 5340SOL    HW117461   6.554   2.036  11.390  1.2433  2.7551  0.8516
 5340SOL    HW217462   6.418   2.101  11.402 -1.4069 -2.1209 -0.0139
 5341SOL     OW17463   2.318   2.101   4.508 -0.2305 -0.3314 -0.5735
 5341SOL    HW117464   2.335   2.173   4.448 -0.1135 -0.5028 -0.7465
 5341SOL    HW217465   2.274   2.035   4.455 -1.5535  0.1398 -0.1245
 5342SOL     OW17466   0.405   1.428   7.515  0.5272 -0.6491  0.0301
 5342SOL    HW117467   0.469   1.493   7.486  0.6146 -0.9802 -0.5369
 5342SOL    HW217468   0.449   1.382   7.586  0.1238  0.4989  1.0711
 5343SOL     OW17469   7.787   7.276   4.538  0.1708  0.1341 -0.7352
 5343SOL    HW117470   7.821   7.225   4.612  0.9544 -1.1559 -1.9226
 5343SOL    HW217471   7.694   7.286   4.557 -0.1629 -2.3139 -0.6994
 5344SOL     OW17472   7.485   2.754   5.223  0.1186 -0.6601  0.0755
 5344SOL    HW117473   7.485   2.776   5.130  0.4884  1.4321  0.5251
 5344SOL    HW217474   7.533   2.671   5.228  0.8453 -0.3701 -1.4832
 5345SOL     OW17475   6.468   6.908   8.422 -0.2154  0.9355  0.4295
 5345SOL    HW117476   6.532   6.966   8.380  0.9147 -1.5856 -1.6423
 5345SOL    HW217477   6.501   6.820   8.404 -3.7564 -0.4935  0.1639
 5346SOL     OW17478   1.104   1.274   1.821 -0.0325 -0.1517 -0.2121
 5346SOL    HW117479   1.113   1.247   1.913 -0.1614 -3.4260 -1.0592
 5346SOL    HW217480   1.192   1.302   1.796  0.0403  0.6094  0.8310
 5347SOL     OW17481   7.401   4.912   1.934 -0.3864  0.1969 -0.1646
 5347SOL    HW117482   7.402   4.957   1.850 -0.8903  1.3937  0.4371
 5347SOL    HW217483   7.323   4.947   1.978  0.7077  0.7631  1.4033
 5348SOL     OW17484   6.342   3.874   1.945 -0.5956  0.8873 -0.3943
 5348SOL    HW117485   6.313   3.962   1.920 -0.7207  0.7542 -0.7124
 5348SOL    HW217486   6.436   3.884   1.961 -0.8005  1.3283  0.6664
 5349SOL     OW17487   6.747   7.618   9.044 -0.0427 -0.8066 -0.1150
 5349SOL    HW117488   6.834   7.621   9.004  0.2436  0.4752  0.5860
 5349SOL    HW217489   6.693   7.573   8.978  0.6078  0.4806 -1.5856
 5350SOL     OW17490   6.765   4.545   6.687 -0.2592  0.0827 -0.4643
 5350SOL    HW117491   6.725   4.459   6.676 -1.5995  0.8072 -1.6068
 5350SOL    HW217492   6.736   4.595   6.610 -2.2642  2.5645  1.7226
 5351SOL     OW17493   6.129   6.376   0.564  0.5252  0.1121  0.0531
 5351SOL    HW117494   6.178   6.313   0.617 -1.3216  0.5873  2.5093
 5351SOL    HW217495   6.193   6.445   0.543  2.1635 -1.7115 -1.3574
 5352SOL     OW17496   3.920   1.416   8.800 -0.1773  0.0132  0.0365
 5352SOL    HW117497   3.845   1.357   8.797  0.5943 -0.9599 -1.3001
 5352SOL    HW217498   3.964   1.395   8.883 -1.5007  0.8136  0.9848
 5353SOL     OW17499   0.739   3.079   1.536  0.4371 -0.2560 -0.3848
 5353SOL    HW117500   0.713   3.115   1.621  0.2355 -1.5092  0.0970
 5353SOL    HW217501   0.777   3.154   1.490 -2.1464  1.1811 -0.3661
 5354SOL     OW17502   2.112   5.175   8.134 -0.3729  0.3428  0.1537
 5354SOL    HW117503   2.106   5.271   8.133 -0.1086  0.3708 -1.0789
 5354SOL    HW217504   2.171   5.154   8.061 -0.7372 -0.7747  0.1581
 5355SOL     OW17505   6.008   7.554   1.116 -0.3863  0.0915  0.2335
 5355SOL    HW117506   6.091   7.546   1.069 -0.5444  1.4814 -0.3320
 5355SOL    HW217507   5.981   7.464   1.132  0.7972 -0.3920 -0.3552
 5356SOL     OW17508   3.004   0.914   2.669 -0.5916 -0.4388 -0.5281
 5356SOL    HW117509   2.964   0.857   2.603 -2.4732 -0.2196  0.3464
 5356SOL    HW217510   3.073   0.961   2.622 -0.0750 -2.2371 -1.6560
 5357SOL     OW17511   5.561   3.965   3.569  0.1252 -0.0663  0.1916
 5357SOL    HW117512   5.606   3.953   3.485  0.4994 -0.4769  0.4540
 5357SOL    HW217513   5.516   4.050   3.559  0.5857  0.1353 -0.2315
 5358SOL     OW17514   0.722   2.129   5.101 -0.5220 -0.7031  0.2450
 5358SOL    HW117515   0.681   2.088   5.178  0.4427 -0.1021  1.0996
 5358SOL    HW217516   0.810   2.151   5.130 -1.1529  2.6032  0.0955
 5359SOL     OW17517   4.561   4.415   0.135  0.6732  0.5370 -0.5314
 5359SOL    HW117518   4.588   4.461   0.056 -1.3118  1.3253 -0.8147
 5359SOL    HW217519   4.495   4.472   0.174  0.8916 -0.3199  1.1704
 5360SOL     OW17520   1.045   6.551   3.762  0.4928  0.4686 -0.2019
 5360SOL    HW117521   1.087   6.598   3.834  1.4740  2.2887 -1.8730
 5360SOL    HW217522   1.082   6.590   3.683 -1.8554 -0.2225 -1.7431
 5361SOL     OW17523   4.032   4.819   9.949 -0.1995  0.2272  0.4198
 5361SOL    HW117524   4.078   4.851   9.872  0.1922 -1.3900 -0.0701
 5361SOL    HW217525   3.967   4.758   9.914  0.7334 -1.4025  1.3891
 5362SOL     OW17526   4.378   3.964   1.884  0.1478  0.0688 -0.1586
 5362SOL    HW117527   4.297   3.967   1.832  1.4622 -0.7070 -2.3750
 5362SOL    HW217528   4.404   4.055   1.894 -0.9443  0.3244  0.5476
 5363SOL     OW17529   2.183   5.208   0.193 -0.4193 -0.5011 -0.3933
 5363SOL    HW117530   2.175   5.175   0.282  1.2518  0.7409  0.2564
 5363SOL    HW217531   2.189   5.303   0.202 -1.9342 -0.1943 -1.9793
 5364SOL     OW17532   5.440   0.956   1.307 -0.4911 -0.2917 -0.3088
 5364SOL    HW117533   5.505   1.020   1.337  0.8047 -1.6011 -0.2537
 5364SOL    HW217534   5.476   0.871   1.330 -2.1244 -1.0882 -0.5136
 5365SOL     OW17535   6.598   3.475   8.595  0.4197 -0.4241 -0.2155
 5365SOL    HW117536   6.552   3.394   8.617 -1.8358  0.8502  0.0868
 5365SOL    HW217537   6.539   3.545   8.625  2.0265  1.3343 -0.9598
 5366SOL     OW17538   5.887   6.897   1.939  0.1472  0.0554 -0.3047
 5366SOL    HW117539   5.937   6.978   1.951  2.3421 -1.0647 -1.3807
 5366SOL    HW217540   5.839   6.911   1.858 -2.6561  1.7050  1.4491
 5367SOL     OW17541   3.237   1.613   2.155  0.1322 -0.0085  0.2520
 5367SOL    HW117542   3.185   1.680   2.109 -0.5114  0.3171  1.4156
 5367SOL    HW217543   3.302   1.586   2.091 -0.8574  0.2863 -0.9280
 5368SOL     OW17544   2.826   3.442   4.904  0.0473  0.0918  0.3535
 5368SOL    HW117545   2.742   3.485   4.890 -0.0641 -0.2279  0.0293
 5368SOL    HW217546   2.891   3.507   4.877 -0.0872  0.3951  0.7510
 5369SOL     OW17547   3.972   1.249  11.977  0.6757 -0.1834  0.1140
 5369SOL    HW117548   3.890   1.235  11.931  1.3672  1.8036 -1.8975
 5369SOL    HW217549   3.963   1.336  12.017  1.4114 -0.4090  0.8104
 5370SOL     OW17550   4.769   5.728  11.563 -0.1973  0.5278 -0.0701
 5370SOL    HW117551   4.684   5.747  11.522  0.4026 -0.5083 -1.9496
 5370SOL    HW217552   4.754   5.648  11.613  0.4083 -1.9496 -3.4859
 5371SOL     OW17553   2.180   2.278  12.320  0.0207 -0.3291 -1.0222
 5371SOL    HW117554   2.130   2.238  12.392  0.5441  0.4715 -0.1971
 5371SOL    HW217555   2.161   2.372  12.328 -0.2897 -0.2819 -2.2304
 5372SOL     OW17556   7.901   6.413   5.456 -0.5668  0.7779 -0.5225
 5372SOL    HW117557   7.850   6.347   5.410 -0.2149  0.2055 -0.0941
 5372SOL    HW217558   7.853   6.428   5.537  0.0106  0.1307 -0.0508
 5373SOL     OW17559   3.862   6.647   0.860  0.0118  0.1297  0.0300
 5373SOL    HW117560   3.768   6.663   0.850  0.4337  2.9560 -0.2299
 5373SOL    HW217561   3.870   6.613   0.949 -1.3410 -1.4355 -0.3939
 5374SOL     OW17562   3.473   3.294  11.925  0.2110  0.1406 -0.2875
 5374SOL    HW117563   3.423   3.336  11.995 -1.6740  0.5185 -1.7778
 5374SOL    HW217564   3.493   3.365  11.864  0.3494 -0.4639 -0.9587
 5375SOL     OW17565   7.224   3.747   4.325  0.0790 -0.1260  0.1389
 5375SOL    HW117566   7.305   3.797   4.337 -1.6222  2.7243  1.0273
 5375SOL    HW217567   7.165   3.808   4.280 -2.0240 -1.5528  0.8007
 5376SOL     OW17568   2.147   4.588   6.246 -0.4626 -0.4489 -0.3214
 5376SOL    HW117569   2.198   4.524   6.197 -0.2259  0.9295 -1.9524
 5376SOL    HW217570   2.208   4.623   6.311 -0.1598 -0.8204 -0.4034
 5377SOL     OW17571   4.307   7.836   8.429  0.4755  0.5403 -0.2205
 5377SOL    HW117572   4.295   7.761   8.487  2.5767  0.9785  0.8992
 5377SOL    HW217573   4.226   7.886   8.436 -0.4232 -0.9150  0.0540
 5378SOL     OW17574   2.992   3.843  11.207  0.2660 -0.1315  0.3962
 5378SOL    HW117575   2.987   3.938  11.214  0.8005 -0.1021  0.4066
 5378SOL    HW217576   3.083   3.822  11.226  0.0171 -0.6999  0.9815
 5379SOL     OW17577   1.313   6.097   4.233 -0.4332  0.5146  0.5008
 5379SOL    HW117578   1.296   6.006   4.256  0.3878  0.4091  0.7286
 5379SOL    HW217579   1.331   6.095   4.139  0.2099  0.3469  0.6262
 5380SOL     OW17580   1.299   7.501   8.948  0.0278 -0.0198  0.0343
 5380SOL    HW117581   1.366   7.447   8.990  0.4227  1.4420  1.3658
 5380SOL    HW217582   1.258   7.549   9.020 -0.5948  1.1266 -1.0430
 5381SOL     OW17583   7.691   2.117   9.374  0.3316  0.2304  0.4004
 5381SOL    HW117584   7.782   2.146   9.362  0.5968 -0.5735  0.4139
 5381SOL    HW217585   7.689   2.084   9.464  0.3417 -0.8588  0.0131
 5382SOL     OW17586   1.827   3.034  10.677 -0.0119 -0.3137 -0.0938
 5382SOL    HW117587   1.886   3.099  10.715 -0.1302  0.1602 -0.7007
 5382SOL    HW217588   1.865   2.949  10.702  1.2591 -0.0255 -0.9442
 5383SOL     OW17589   7.399   7.570   0.461 -0.1323  0.4147  0.2376
 5383SOL    HW117590   7.466   7.618   0.412  0.5556  0.4733  1.2328
 5383SOL    HW217591   7.446   7.501   0.507 -0.8684 -0.0410  0.3354
 5384SOL     OW17592   6.206   6.059   4.380 -0.4940 -0.0813  0.0991
 5384SOL    HW117593   6.226   6.110   4.302 -0.3349 -2.4984 -1.5415
 5384SOL    HW217594   6.144   5.992   4.350 -0.0095 -1.4266  1.9079
 5385SOL     OW17595   5.170   1.176   3.862  0.0110 -0.2796  0.2889
 5385SOL    HW117596   5.099   1.238   3.875 -0.7337 -1.1848  0.6702
 5385SOL    HW217597   5.140   1.119   3.792  0.4193 -0.5842  0.3549
 5386SOL     OW17598   1.686   3.095   0.215  0.3825 -0.0307  0.3649
 5386SOL    HW117599   1.591   3.107   0.223  0.2769 -0.6673  0.0736
 5386SOL    HW217600   1.710   3.040   0.289  0.5920  0.4456  0.6599
 5387SOL     OW17601   0.531   3.029   6.280  0.2842 -0.4240  0.0679
 5387SOL    HW117602   0.491   3.023   6.193 -1.0142 -0.2070  0.6319
 5387SOL    HW217603   0.502   3.114   6.314  0.3762 -0.7244  0.9190
 5388SOL     OW17604   2.490   1.239   7.500  0.2459 -0.1248  0.0979
 5388SOL    HW117605   2.437   1.173   7.455  1.2339 -1.6657  1.0991
 5388SOL    HW217606   2.427   1.300   7.536 -0.9405 -2.1136  1.5888
 5389SOL     OW17607   0.123   3.702   6.694 -0.3067  0.1235  0.0649
 5389SOL    HW117608   0.214   3.677   6.683 -0.1975 -0.6815  2.3801
 5389SOL    HW217609   0.116   3.787   6.650  1.3533 -0.1236 -0.7420
 5390SOL     OW17610   1.235   5.401   2.443 -0.0866 -0.5523  0.3628
 5390SOL    HW117611   1.237   5.345   2.365  1.1222  2.3693 -1.9177
 5390SOL    HW217612   1.302   5.364   2.501  0.0073 -1.9860 -0.6036
 5391SOL     OW17613   5.786   1.143   6.679  0.1088  0.1115 -0.6283
 5391SOL    HW117614   5.736   1.070   6.715 -0.3832  0.8356  0.2114
 5391SOL    HW217615   5.729   1.219   6.691  0.3632  0.5439 -2.0319
 5392SOL     OW17616   3.288   6.075   2.782 -0.0734  0.3345 -0.4792
 5392SOL    HW117617   3.215   6.043   2.835 -0.8503  0.1081 -1.6567
 5392SOL    HW217618   3.247   6.109   2.703  1.0504  0.8956 -0.8368
 5393SOL     OW17619   0.221   0.613  10.663  0.2606  0.0579 -0.0303
 5393SOL    HW117620   0.281   0.565  10.607 -0.7270  0.2155 -1.2723
 5393SOL    HW217621   0.135   0.575  10.644 -0.1182  0.1979  1.3036
 5394SOL     OW17622   1.367   2.771   8.131  0.0041 -0.5599  0.0367
 5394SOL    HW117623   1.440   2.792   8.072 -0.5005 -0.0402 -0.4142
 5394SOL    HW217624   1.385   2.682   8.160  1.6239  0.0684  1.1265
 5395SOL     OW17625   1.317   3.575  10.854 -0.3642 -0.0091 -0.5483
 5395SOL    HW117626   1.349   3.506  10.797  2.4383  0.3949  0.4121
 5395SOL    HW217627   1.332   3.656  10.806 -0.4004  0.1605 -0.2777
 5396SOL     OW17628   0.041   0.265   9.271 -0.3263 -0.6164  0.1444
 5396SOL    HW117629   0.016   0.352   9.240 -0.9586 -1.2289 -1.1404
 5396SOL    HW217630   0.090   0.282   9.352  0.2712  0.9775 -0.5009
 5397SOL     OW17631   4.909   4.101   5.738 -0.3826  0.0339 -0.5234
 5397SOL    HW117632   4.908   4.069   5.648 -1.9612 -0.5001 -0.3526
 5397SOL    HW217633   4.952   4.032   5.788  5.2485  2.3787 -1.4311
 5398SOL     OW17634   0.579   0.685   4.547  0.5585  0.0265 -0.5903
 5398SOL    HW117635   0.657   0.645   4.587  0.2199 -1.1580 -1.0593
 5398SOL    HW217636   0.612   0.762   4.501  1.1359  0.7220  0.9407
 5399SOL     OW17637   0.917   4.480   4.103  0.0605 -0.0903 -0.4293
 5399SOL    HW117638   0.831   4.438   4.092 -0.0545  0.3188 -1.1857
 5399SOL    HW217639   0.910   4.561   4.053  1.6833 -1.1682 -2.5825
 5400SOL     OW17640   3.686   4.036   2.685 -0.3705  0.3973  0.1878
 5400SOL    HW117641   3.748   4.106   2.667 -1.3363  1.5999  1.3704
 5400SOL    HW217642   3.695   4.018   2.778  0.4856 -1.7217 -0.2361
 5401SOL     OW17643   1.125   6.422  11.818 -0.3023  0.5940  0.5454
 5401SOL    HW117644   1.066   6.440  11.890 -0.7048 -2.1681  1.0016
 5401SOL    HW217645   1.172   6.343  11.844  1.7123  1.2089 -0.9460
 5402SOL     OW17646   6.702   1.539   2.314  0.2843 -0.4562 -0.2503
 5402SOL    HW117647   6.617   1.513   2.349  0.5801 -0.1911  0.7036
 5402SOL    HW217648   6.684   1.620   2.266  0.0571 -0.1659  0.3092
 5403SOL     OW17649   6.181   3.745  12.258 -0.3869  0.1458  0.0339
 5403SOL    HW117650   6.212   3.736  12.348  1.2854  1.4728 -0.3516
 5403SOL    HW217651   6.141   3.832  12.255  0.5112  0.5477 -0.7390
 5404SOL     OW17652   4.979   2.387   3.532  0.3941 -0.0188 -0.6222
 5404SOL    HW117653   4.904   2.407   3.588  0.4445  1.9954 -1.1943
 5404SOL    HW217654   4.961   2.435   3.451  2.2145  0.3841 -0.8268
 5405SOL     OW17655   7.071   2.907   2.152 -0.4271  0.2151  0.1700
 5405SOL    HW117656   7.028   2.993   2.157 -0.1948  0.3039  0.6316
 5405SOL    HW217657   6.999   2.846   2.134 -0.9807  0.1897  2.2242
 5406SOL     OW17658   5.138   6.485   4.419 -0.6905  0.1034 -0.5067
 5406SOL    HW117659   5.231   6.479   4.442 -1.1103 -0.3090  1.2173
 5406SOL    HW217660   5.123   6.411   4.361  0.0788  0.2435 -0.9029
 5407SOL     OW17661   2.037   0.669   4.202 -0.0057  0.0475 -0.2596
 5407SOL    HW117662   1.963   0.631   4.155  0.4957 -2.1920  0.6362
 5407SOL    HW217663   2.000   0.745   4.249 -2.1190 -1.7996  1.2813
 5408SOL     OW17664   5.561   7.744   7.843 -0.4512 -0.6003  0.2329
 5408SOL    HW117665   5.646   7.774   7.875 -0.5238  1.2608 -1.1956
 5408SOL    HW217666   5.573   7.731   7.749 -2.0723  1.0845 -0.2711
 5409SOL     OW17667   7.443   2.939   2.799  0.1987 -0.0153 -0.1159
 5409SOL    HW117668   7.475   3.013   2.851  0.5414 -0.1316 -0.1619
 5409SOL    HW217669   7.352   2.962   2.779  0.5483  0.8073 -0.8613
 5410SOL     OW17670   2.524   4.528  12.002  0.8490 -0.2990  0.1154
 5410SOL    HW117671   2.455   4.501  11.942  0.9035 -0.3565  0.0796
 5410SOL    HW217672   2.584   4.454  12.006  1.0538 -0.1425 -0.0632
 5411SOL     OW17673   6.063   3.599   9.675  0.5437 -0.8872 -0.0435
 5411SOL    HW117674   6.021   3.522   9.638  0.8322 -0.6452 -0.9058
 5411SOL    HW217675   5.991   3.654   9.707  0.2193 -0.6961 -1.0613
 5412SOL     OW17676   4.109   5.253   7.981 -0.6896  0.1758  0.1963
 5412SOL    HW117677   4.048   5.179   7.984 -1.6477  0.9900  2.2276
 5412SOL    HW217678   4.103   5.294   8.067  1.6545  1.1950 -0.0328
 5413SOL     OW17679   1.827   3.307   2.405  0.1555  0.8418  0.0954
 5413SOL    HW117680   1.793   3.295   2.317 -1.1102 -0.7151  0.7437
 5413SOL    HW217681   1.846   3.219   2.436 -2.8765  0.8860  2.6240
 5414SOL     OW17682   0.820   5.456   4.512  0.2647 -0.4944  0.1096
 5414SOL    HW117683   0.832   5.478   4.420  0.7476 -3.1768 -0.5629
 5414SOL    HW217684   0.794   5.538   4.554 -1.8515  0.4220 -2.7291
 5415SOL     OW17685   7.555   0.562   9.938  0.1280 -0.0352 -0.2329
 5415SOL    HW117686   7.588   0.496  10.000 -0.6282 -1.1100 -0.9514
 5415SOL    HW217687   7.555   0.518   9.853 -0.9957  0.6738 -0.6243
 5416SOL     OW17688   7.531   2.172   0.756 -0.2671 -0.3995 -0.2861
 5416SOL    HW117689   7.537   2.114   0.681 -0.0602 -0.1727 -0.4465
 5416SOL    HW217690   7.606   2.231   0.747  0.6319 -1.3219  0.9039
 5417SOL     OW17691   5.077   5.817   2.362  0.4671  0.1084 -0.2822
 5417SOL    HW117692   5.138   5.745   2.381  1.0930  0.7836  0.3147
 5417SOL    HW217693   5.033   5.790   2.281  2.7715  0.3498 -1.6974
 5418SOL     OW17694   1.194   3.383  11.006 -0.4345  0.4449  0.0052
 5418SOL    HW117695   1.231   3.461  10.963  0.8040  0.3860  0.9067
 5418SOL    HW217696   1.100   3.397  11.004 -0.2835  1.4700 -0.7849
 5419SOL     OW17697   2.726   5.027   2.197  0.4652  0.1053 -0.0088
 5419SOL    HW117698   2.704   5.119   2.211  0.9933  0.6224 -2.2530
 5419SOL    HW217699   2.643   4.981   2.210 -0.9421  1.4446 -3.1460
 5420SOL     OW17700   7.858   5.134   6.930  0.2429 -0.0543  0.2336
 5420SOL    HW117701   7.763   5.137   6.918  0.3428 -0.2480 -0.6461
 5420SOL    HW217702   7.885   5.226   6.931 -0.2498  0.1586  3.2170
 5421SOL     OW17703   2.290   0.588  10.927  0.1686 -0.4435  0.6282
 5421SOL    HW117704   2.296   0.666  10.872  1.7885 -0.3029  0.9388
 5421SOL    HW217705   2.225   0.610  10.993 -2.2349 -0.8153 -1.4862
 5422SOL     OW17706   1.848   5.092   1.394 -0.2961 -0.6114 -0.2804
 5422SOL    HW117707   1.889   5.159   1.339 -0.5271 -0.5973 -0.4375
 5422SOL    HW217708   1.782   5.052   1.337 -2.1894  0.9922  0.7008
 5423SOL     OW17709   0.100   7.041   8.169 -0.6127  0.1177  0.4864
 5423SOL    HW117710   0.058   7.032   8.254 -0.6804  2.7523  0.8151
 5423SOL    HW217711   0.030   7.074   8.111  0.3281  2.2809  0.4720
 5424SOL     OW17712   6.506   3.020   9.825 -0.7188 -0.1057 -0.2460
 5424SOL    HW117713   6.526   3.106   9.862 -1.7456 -0.2886  0.7602
 5424SOL    HW217714   6.533   2.958   9.892 -3.0390 -0.4200  0.4703
 5425SOL     OW17715   2.845   0.482   7.990  0.6056 -0.1920 -0.5833
 5425SOL    HW117716   2.827   0.507   7.900 -0.3353  0.8006 -0.1469
 5425SOL    HW217717   2.796   0.401   8.003  0.0742  0.0955 -0.7434
 5426SOL     OW17718   6.825   1.155   8.428  0.4774  0.4848 -0.2577
 5426SOL    HW117719   6.797   1.120   8.512 -1.0002 -1.7195 -1.5489
 5426SOL    HW217720   6.752   1.210   8.399 -0.6995 -1.6811 -1.6393
 5427SOL     OW17721   2.653   6.514   6.655  0.9110 -0.0591  0.3035
 5427SOL    HW117722   2.595   6.444   6.685  0.8056 -1.0896 -2.0562
 5427SOL    HW217723   2.650   6.580   6.724 -2.2109 -0.5540  0.7669
 5428SOL     OW17724   2.991   3.668   1.208 -0.5901 -0.1164 -0.3345
 5428SOL    HW117725   2.931   3.622   1.150 -1.5828  1.4956 -0.6593
 5428SOL    HW217726   3.057   3.706   1.150 -1.4846  1.3507 -0.4502
 5429SOL     OW17727   2.919   6.712   3.893  0.5747 -0.1436  0.0559
 5429SOL    HW117728   2.958   6.682   3.811  0.2428  0.3266 -0.2892
 5429SOL    HW217729   2.904   6.806   3.878 -0.6154 -0.2935  0.1875
 5430SOL     OW17730   2.507   6.143   5.513 -0.0101 -0.4022 -0.0388
 5430SOL    HW117731   2.417   6.177   5.507  0.5877  1.2299 -0.3473
 5430SOL    HW217732   2.513   6.078   5.443 -0.7952 -0.1379 -0.3688
 5431SOL     OW17733   5.004   0.299   6.962 -0.4175 -0.2336 -0.1952
 5431SOL    HW117734   5.024   0.221   6.911 -0.1830 -0.3836  0.1313
 5431SOL    HW217735   4.937   0.271   7.024  1.0437 -0.6743  1.2356
 5432SOL     OW17736   3.074   1.688   3.244  0.2819 -0.9679  0.0297
 5432SOL    HW117737   3.021   1.727   3.175  2.1332  2.6583  0.4230
 5432SOL    HW217738   3.013   1.673   3.316 -0.5720  1.5706 -0.0742
 5433SOL     OW17739   7.692   2.511   7.332 -0.0284  0.1220 -0.4750
 5433SOL    HW117740   7.693   2.524   7.237 -0.1457 -3.8070 -1.1654
 5433SOL    HW217741   7.774   2.466   7.351 -0.6712 -0.4914  1.0301
 5434SOL     OW17742   4.841   1.193   0.365  0.1557  0.4375 -0.1032
 5434SOL    HW117743   4.911   1.218   0.304  1.8281  0.7855  1.8372
 5434SOL    HW217744   4.809   1.276   0.400 -0.0990  0.2052  0.2187
 5435SOL     OW17745   4.383   5.156  11.460 -0.2298 -0.0388  0.1925
 5435SOL    HW117746   4.362   5.072  11.417  0.8373  0.2167 -0.8724
 5435SOL    HW217747   4.453   5.193  11.407 -2.1274  2.5971 -0.7210
 5436SOL     OW17748   1.127   6.290   3.435 -0.1400 -0.0702  0.0215
 5436SOL    HW117749   1.196   6.318   3.375  1.5081 -0.7727  1.4841
 5436SOL    HW217750   1.135   6.195   3.439 -1.2267 -0.1740  0.2151
 5437SOL     OW17751   3.554   4.946   6.690 -0.6429 -0.0181 -0.1986
 5437SOL    HW117752   3.629   4.933   6.748 -0.9408 -0.1462  0.1653
 5437SOL    HW217753   3.584   5.010   6.625 -0.5364  0.6868  0.5310
 5438SOL     OW17754   5.869   5.086   0.653  0.2928  0.2747 -0.0708
 5438SOL    HW117755   5.912   5.011   0.693 -0.2452 -1.3869 -2.3737
 5438SOL    HW217756   5.874   5.069   0.559 -2.2116  1.7948 -0.5726
 5439SOL     OW17757   5.827   3.919   7.947  0.4040  0.5037 -0.1156
 5439SOL    HW117758   5.807   3.969   8.026  2.5096  0.8553  0.2529
 5439SOL    HW217759   5.822   3.827   7.975 -0.2666  0.5811  0.0389
 5440SOL     OW17760   6.247   6.661   0.895  0.1933  0.0827  0.0178
 5440SOL    HW117761   6.193   6.705   0.961 -0.2756 -1.2399  0.5421
 5440SOL    HW217762   6.208   6.688   0.811 -1.0448 -0.5372  0.3772
 5441SOL     OW17763   7.729   7.694   8.411  0.1903  0.4277 -0.0450
 5441SOL    HW117764   7.795   7.632   8.381 -0.2737  0.2246 -0.6756
 5441SOL    HW217765   7.676   7.712   8.333  0.8767  2.3526 -0.1181
 5442SOL     OW17766   1.481   7.713   1.823  0.1654  0.0892 -0.1887
 5442SOL    HW117767   1.462   7.797   1.781 -0.5092  0.2649  0.4339
 5442SOL    HW217768   1.513   7.657   1.753  0.3364  0.7755 -0.6720
 5443SOL     OW17769   6.612   1.777   0.814 -0.3036 -0.8820  0.7545
 5443SOL    HW117770   6.571   1.833   0.880 -0.1097 -1.1566  1.1106
 5443SOL    HW217771   6.694   1.822   0.792 -0.2703 -0.8949  0.8518
 5444SOL     OW17772   5.492   0.448  11.299 -0.2776  0.3158 -0.2461
 5444SOL    HW117773   5.547   0.405  11.365 -1.8809 -2.6450 -0.6606
 5444SOL    HW217774   5.429   0.499  11.350  0.0440  0.0836  0.3971
 5445SOL     OW17775   6.259   6.988   1.808  0.1323  0.0684 -0.2262
 5445SOL    HW117776   6.175   7.031   1.823  0.1761  0.5801 -1.3468
 5445SOL    HW217777   6.308   7.003   1.888 -0.3457  0.9706 -0.0874
 5446SOL     OW17778   5.942   1.154   7.594  0.1332 -0.8041  0.0398
 5446SOL    HW117779   5.930   1.064   7.565 -3.1215 -1.4611  2.8721
 5446SOL    HW217780   5.866   1.201   7.558  1.6605  0.8573 -1.2095
 5447SOL     OW17781   7.573   1.417   4.435 -0.1262 -0.4815  0.1032
 5447SOL    HW117782   7.633   1.490   4.421 -0.0860 -0.1225  1.8600
 5447SOL    HW217783   7.499   1.455   4.481 -1.2251 -1.1289 -1.0862
 5448SOL     OW17784   5.705   4.092  11.688  0.8156 -0.0579 -0.1996
 5448SOL    HW117785   5.672   4.166  11.738 -1.0297 -0.6125 -0.5001
 5448SOL    HW217786   5.749   4.036  11.752 -0.6812 -0.2925  0.6820
 5449SOL     OW17787   2.754   0.338  12.198  0.2690  0.4133 -0.2468
 5449SOL    HW117788   2.704   0.330  12.280  0.1520  0.8477 -0.2741
 5449SOL    HW217789   2.687   0.354  12.131  0.4436  0.9929 -0.2839
 5450SOL     OW17790   5.851   7.155   2.794 -0.6808  0.3444  0.0068
 5450SOL    HW117791   5.811   7.095   2.856 -1.1506 -0.2819 -0.8691
 5450SOL    HW217792   5.863   7.237   2.842 -1.8303  0.1401  0.6608
 5451SOL     OW17793   4.075   3.612   1.328 -0.6940  0.1683 -0.1400
 5451SOL    HW117794   3.998   3.622   1.385 -0.7704 -0.8397 -0.0592
 5451SOL    HW217795   4.132   3.551   1.375 -0.0480  0.5395 -0.4279
 5452SOL     OW17796   2.046   6.437  10.895  0.1367 -0.1444 -0.5676
 5452SOL    HW117797   2.064   6.494  10.820  0.3444 -0.6930 -0.9427
 5452SOL    HW217798   1.993   6.491  10.954  1.2748  0.8213 -0.3837
 5453SOL     OW17799   1.985   7.759   7.628 -0.4282 -0.6683  0.5315
 5453SOL    HW117800   2.011   7.737   7.539  0.8342  0.7953  0.4904
 5453SOL    HW217801   1.930   7.837   7.618 -1.4111 -1.2843  0.9581
 5454SOL     OW17802   0.618   2.313   9.290 -0.6280  0.2140  0.0892
 5454SOL    HW117803   0.696   2.275   9.331 -0.1647  0.2894 -0.6984
 5454SOL    HW217804   0.640   2.319   9.197 -1.9854 -0.7522 -0.3168
 5455SOL     OW17805   4.138   3.498  10.616 -0.1086 -0.2845  0.1872
 5455SOL    HW117806   4.079   3.573  10.610 -1.2220 -1.2340 -1.5771
 5455SOL    HW217807   4.190   3.503  10.535  0.4455 -0.8989  0.5013
 5456SOL     OW17808   6.784   3.642   8.152 -0.2084  0.0818  0.5136
 5456SOL    HW117809   6.780   3.733   8.120 -0.2505 -0.1564 -0.1861
 5456SOL    HW217810   6.719   3.596   8.099  0.2349 -0.4768  0.4539
 5457SOL     OW17811   4.809   2.236   5.210  0.2178 -0.4166 -0.2014
 5457SOL    HW117812   4.867   2.177   5.258  0.2032  0.2376  0.6572
 5457SOL    HW217813   4.808   2.316   5.263 -0.0824  0.2084 -1.1225
 5458SOL     OW17814   5.173   3.492   6.564 -0.5333  0.2580 -0.4719
 5458SOL    HW117815   5.177   3.427   6.634 -0.9873 -0.0074 -0.6903
 5458SOL    HW217816   5.080   3.511   6.554 -0.4266  0.7016 -0.6317
 5459SOL     OW17817   5.736   4.059   4.098  0.1533  0.2162 -0.2227
 5459SOL    HW117818   5.647   4.023   4.103  0.3372 -0.0814  2.3637
 5459SOL    HW217819   5.754   4.090   4.187  2.4585  0.7668 -0.8222
 5460SOL     OW17820   5.877   6.316   5.971 -0.4234 -0.1637  0.4819
 5460SOL    HW117821   5.818   6.356   5.907 -0.5918 -1.6831 -0.3688
 5460SOL    HW217822   5.928   6.389   6.006  0.2872  0.6357 -2.0305
 5461SOL     OW17823   1.592   7.794   6.181 -0.0766 -0.5218  0.5409
 5461SOL    HW117824   1.628   7.822   6.265  2.1627 -2.1823  0.2310
 5461SOL    HW217825   1.603   7.870   6.124 -0.5348  0.2319  1.4142
 5462SOL     OW17826   3.080   6.646   0.977 -0.3553 -0.0071  0.3109
 5462SOL    HW117827   3.101   6.707   0.906  1.6418 -0.7865  0.1621
 5462SOL    HW217828   3.165   6.619   1.011 -1.2236  1.1122  3.7427
 5463SOL     OW17829   1.133   6.386   7.148 -0.7644 -0.5442  0.1529
 5463SOL    HW117830   1.212   6.391   7.201 -0.2204 -1.6240 -0.5300
 5463SOL    HW217831   1.062   6.404   7.210 -0.0852 -0.9409  1.0634
 5464SOL     OW17832   0.631   2.689   7.329  0.5881  0.2796  0.4538
 5464SOL    HW117833   0.541   2.716   7.345  0.5739 -0.2858  1.4166
 5464SOL    HW217834   0.669   2.762   7.279  0.0106  1.2163  1.3257
 5465SOL     OW17835   5.689   0.576  11.712  0.6210  0.3758  0.3957
 5465SOL    HW117836   5.713   0.656  11.666 -0.8061  0.6821  0.1393
 5465SOL    HW217837   5.612   0.600  11.763  0.4766 -0.7036  0.7097
 5466SOL     OW17838   4.163   4.741   6.153  0.1297 -0.2540 -0.0186
 5466SOL    HW117839   4.227   4.684   6.111 -1.2963 -1.4774 -0.6136
 5466SOL    HW217840   4.112   4.778   6.081 -2.0156 -1.9825  0.4790
 5467SOL     OW17841   1.075   2.592   6.648  0.3882  0.8775  0.5790
 5467SOL    HW117842   1.144   2.658   6.644 -0.3659  1.6584 -0.4316
 5467SOL    HW217843   1.024   2.615   6.725  0.5813  1.0096  0.6668
 5468SOL     OW17844   6.013   3.846   5.689  0.0478 -0.2021  0.7660
 5468SOL    HW117845   6.100   3.845   5.728  0.7414  1.6427 -0.5746
 5468SOL    HW217846   5.954   3.865   5.762  1.0624  0.9297  1.3231
 5469SOL     OW17847   3.020   0.948  11.833  0.2846  0.0369 -0.0020
 5469SOL    HW117848   2.997   1.010  11.903 -1.2685  0.0050 -0.4491
 5469SOL    HW217849   3.034   0.865  11.879  1.4169  0.4828  0.4939
 5470SOL     OW17850   7.694   6.012   3.943  0.2919 -0.1698  0.0105
 5470SOL    HW117851   7.695   6.106   3.961  2.5415  0.2016 -1.6891
 5470SOL    HW217852   7.764   5.998   3.880 -0.6260 -2.8689 -0.5613
 5471SOL     OW17853   6.532   0.467   1.359 -0.0326  0.3920 -0.1585
 5471SOL    HW117854   6.572   0.398   1.307 -0.1175  1.4909 -1.7277
 5471SOL    HW217855   6.492   0.527   1.295 -1.5611  0.9354  1.2187
 5472SOL     OW17856   4.339   1.130   0.731 -0.0647  0.3363  0.3742
 5472SOL    HW117857   4.302   1.054   0.775  0.5432 -1.4180 -1.9944
 5472SOL    HW217858   4.268   1.195   0.734 -1.2492 -0.9195  0.9328
 5473SOL     OW17859   6.766   7.571  10.377  0.3780 -0.0987 -0.2816
 5473SOL    HW117860   6.714   7.531  10.447 -1.4496  1.2420 -0.8117
 5473SOL    HW217861   6.777   7.662  10.405 -1.2387  0.7341 -2.1499
 5474SOL     OW17862   1.506   2.215  10.525  0.1939 -0.5085  0.4032
 5474SOL    HW117863   1.412   2.231  10.536 -0.4593 -0.8943 -3.4110
 5474SOL    HW217864   1.517   2.124  10.552 -1.1748 -1.3791 -1.7213
 5475SOL     OW17865   4.909   4.898   5.667  0.1162 -0.0655 -0.5548
 5475SOL    HW117866   4.988   4.853   5.637  0.4916  0.1680  0.0792
 5475SOL    HW217867   4.904   4.977   5.613  1.3098  0.8388  0.5907
 5476SOL     OW17868   2.204   2.503   9.167 -0.1419  0.3597 -0.5355
 5476SOL    HW117869   2.229   2.502   9.074 -0.8193 -0.8065 -0.7266
 5476SOL    HW217870   2.120   2.548   9.168  1.0199  2.6690 -0.1226
 5477SOL     OW17871   3.728   6.423   5.989 -0.4826 -0.4687  0.3845
 5477SOL    HW117872   3.662   6.408   5.921 -1.1105  0.8438  0.6641
 5477SOL    HW217873   3.812   6.415   5.943 -0.8973  0.2298 -0.5232
 5478SOL     OW17874   2.843   2.486   9.320  0.7035 -0.1858 -0.0774
 5478SOL    HW117875   2.842   2.398   9.357  1.4665 -0.4788 -0.7138
 5478SOL    HW217876   2.753   2.504   9.296  0.6112 -0.9595 -0.3178
 5479SOL     OW17877   4.969   2.390   0.200  0.1823 -0.4165 -0.1468
 5479SOL    HW117878   4.884   2.417   0.166 -0.2601 -2.1518 -0.5223
 5479SOL    HW217879   4.955   2.380   0.294 -0.3555 -1.7033 -0.3375
 5480SOL     OW17880   5.232   5.371   0.520 -0.6593  0.5750 -0.1033
 5480SOL    HW117881   5.322   5.375   0.487 -1.1571  2.5108 -1.4185
 5480SOL    HW217882   5.241   5.348   0.612  1.1972  0.9487 -0.1495
 5481SOL     OW17883   2.973   6.602   0.706 -0.2305 -0.3647  0.7270
 5481SOL    HW117884   3.030   6.633   0.636  0.7707 -0.0820  1.6334
 5481SOL    HW217885   2.925   6.529   0.667  0.5097 -0.4016 -0.1645
 5482SOL     OW17886   7.215   7.713  11.988  0.3148  0.6261  0.5408
 5482SOL    HW117887   7.187   7.673  12.070  0.0855  0.2973  0.3046
 5482SOL    HW217888   7.245   7.639  11.934 -0.4566  0.7183 -0.0391
 5483SOL     OW17889   0.107   2.258   1.988  0.0557  0.0124 -0.0680
 5483SOL    HW117890   0.150   2.235   1.906  1.4030  0.2289  0.5464
 5483SOL    HW217891   0.130   2.349   2.002 -2.2407  0.7501 -0.6664
 5484SOL     OW17892   5.915   4.582   4.512  0.5735  0.1822 -0.5192
 5484SOL    HW117893   5.852   4.520   4.549  2.0795 -0.8743  0.3406
 5484SOL    HW217894   5.910   4.568   4.417 -0.8694  0.5302 -0.5237
 5485SOL     OW17895   0.915   3.588   0.242  0.3527  0.6873  0.5552
 5485SOL    HW117896   0.842   3.646   0.266  0.0276  0.2426  0.6569
 5485SOL    HW217897   0.963   3.637   0.175 -1.9641 -0.3639 -2.0676
 5486SOL     OW17898   1.976   4.179  12.068 -0.0088 -0.1510  0.3860
 5486SOL    HW117899   2.035   4.177  11.992 -0.5325  0.1727 -0.0382
 5486SOL    HW217900   1.897   4.222  12.035  0.5818  2.0780  1.7001
 5487SOL     OW17901   3.001   2.298   2.061  0.4116 -0.7305 -0.4850
 5487SOL    HW117902   3.082   2.283   2.014  0.5182 -1.7810  0.0074
 5487SOL    HW217903   2.932   2.289   1.994  0.7079  0.7383 -1.0207
 5488SOL     OW17904   0.043   1.169   2.720 -0.0999 -0.5440 -0.1325
 5488SOL    HW117905  -0.004   1.206   2.794 -0.1536  0.8776 -0.8354
 5488SOL    HW217906   0.136   1.182   2.741 -0.0680  2.8353 -1.5933
 5489SOL     OW17907   3.798   4.011   7.783 -0.4844 -0.2440 -0.2625
 5489SOL    HW117908   3.785   3.924   7.821  0.5671 -0.6102 -0.6832
 5489SOL    HW217909   3.712   4.051   7.783 -0.6541 -0.5173  1.8060
 5490SOL     OW17910   5.324   7.421   4.861  0.1048  0.2976  0.1031
 5490SOL    HW117911   5.330   7.479   4.786 -0.6298 -0.1673 -0.3265
 5490SOL    HW217912   5.319   7.333   4.824  0.3140  0.0170  0.7142
 5491SOL     OW17913   6.515   2.230   8.734  0.4040  0.1609  0.3171
 5491SOL    HW117914   6.499   2.278   8.815 -1.7978 -0.3423  0.2322
 5491SOL    HW217915   6.560   2.150   8.761  0.6427  0.4868  0.8985
 5492SOL     OW17916   3.124   4.510  11.883  0.6830  0.1933  0.1660
 5492SOL    HW117917   3.078   4.490  11.964  1.4815  1.7925  1.0558
 5492SOL    HW217918   3.055   4.517  11.817 -0.1550  0.5793  1.0623
 5493SOL     OW17919   4.808   3.440   8.515  0.1546 -0.1795 -0.4090
 5493SOL    HW117920   4.741   3.371   8.512  2.0841 -2.1423 -1.7945
 5493SOL    HW217921   4.859   3.420   8.593  0.8950 -0.5529 -0.9697
 5494SOL     OW17922   0.247   4.761  11.356 -0.0613 -0.5576  0.9974
 5494SOL    HW117923   0.259   4.854  11.377  0.5500 -0.0713 -1.2397
 5494SOL    HW217924   0.332   4.722  11.372  0.1607 -0.3698  0.2893
 5495SOL     OW17925   4.010   0.889   0.061  0.2743 -0.4330  0.2724
 5495SOL    HW117926   3.945   0.891  -0.009  1.2713 -2.4476 -0.8181
 5495SOL    HW217927   4.094   0.882   0.015  1.1431  0.4518  1.6629
 5496SOL     OW17928   7.376   2.670   2.123  0.2400 -0.5278  0.1443
 5496SOL    HW117929   7.349   2.578   2.123  0.0447 -0.4750 -0.5043
 5496SOL    HW217930   7.411   2.685   2.035 -0.8106  0.3167 -0.1511
 5497SOL     OW17931   1.373   4.991  11.913 -0.2328 -0.2344 -0.3379
 5497SOL    HW117932   1.445   4.942  11.952 -0.4237  0.3386  0.7924
 5497SOL    HW217933   1.312   5.005  11.985 -1.3136 -0.4023 -1.1974
 5498SOL     OW17934   4.976   7.202   7.278  0.3320  0.5789 -0.1036
 5498SOL    HW117935   4.916   7.275   7.289 -0.7861 -0.3577  0.2758
 5498SOL    HW217936   5.028   7.201   7.359  1.5109  1.9303 -0.8052
 5499SOL     OW17937   1.300   2.913  12.233 -0.5818  0.5710  0.1523
 5499SOL    HW117938   1.249   2.860  12.295 -0.5884 -0.5973 -0.8175
 5499SOL    HW217939   1.359   2.850  12.192  1.9877  1.9535  1.5359
 5500SOL     OW17940   2.384   3.400   1.104  0.3536 -0.4436  0.6265
 5500SOL    HW117941   2.459   3.388   1.045 -0.7784 -1.6693 -0.6582
 5500SOL    HW217942   2.348   3.312   1.114 -1.5281  0.2492  0.3521
 5501SOL     OW17943   3.881   2.964   9.213 -0.0139 -0.9618 -0.1906
 5501SOL    HW117944   3.958   2.945   9.267  0.3252  1.3683  0.2473
 5501SOL    HW217945   3.904   2.931   9.126  1.9273  0.4697 -0.2994
 5502SOL     OW17946   7.008   0.132  11.065  0.2780  0.5742 -0.7085
 5502SOL    HW117947   7.024   0.199  10.999  0.9884  0.8125 -0.3032
 5502SOL    HW217948   6.913   0.135  11.080  0.1207  0.5488 -1.6724
 5503SOL     OW17949   2.152   0.383   0.985 -0.0895 -0.2165 -0.3391
 5503SOL    HW117950   2.132   0.373   0.892 -2.0156 -0.3131  0.0333
 5503SOL    HW217951   2.150   0.477   1.000 -0.1380 -0.2186 -0.3317
 5504SOL     OW17952   5.274   5.700   2.039  0.1299  0.1240  0.0802
 5504SOL    HW117953   5.346   5.722   1.980  1.2942 -0.7868  1.1220
 5504SOL    HW217954   5.196   5.706   1.984  1.2116 -1.4077 -1.7640
 5505SOL     OW17955   0.190   3.208   8.983 -0.3965 -0.1729  0.0512
 5505SOL    HW117956   0.262   3.151   8.955  0.4748  0.4597  0.9409
 5505SOL    HW217957   0.134   3.152   9.037 -0.1741 -0.4785 -0.0374
 5506SOL     OW17958   4.555   5.215   0.574 -0.1460  0.4399  0.1268
 5506SOL    HW117959   4.564   5.151   0.644  2.0107 -0.9769 -1.3442
 5506SOL    HW217960   4.466   5.250   0.585 -0.2852 -0.5167  2.8310
 5507SOL     OW17961   5.106   1.103   8.382 -0.5753 -0.0411  0.8728
 5507SOL    HW117962   5.171   1.157   8.427  0.0983  0.2247 -0.3774
 5507SOL    HW217963   5.131   1.013   8.402 -1.3542  0.0712  2.4859
 5508SOL     OW17964   1.550   6.272  11.935 -0.9592  0.1992  0.0226
 5508SOL    HW117965   1.517   6.298  12.021 -2.3435 -0.1134 -0.3950
 5508SOL    HW217966   1.571   6.355  11.891 -0.9083  0.3851  0.3979
 5509SOL     OW17967   5.447   4.262   0.816 -0.4120 -0.0427  0.3658
 5509SOL    HW117968   5.452   4.336   0.756 -0.3879  0.6485  1.1962
 5509SOL    HW217969   5.531   4.218   0.806 -0.7252 -0.4396 -0.7106
 5510SOL     OW17970   1.800   3.738  12.216 -0.0691  0.3847  0.6332
 5510SOL    HW117971   1.868   3.678  12.186 -0.3984 -0.1934  1.0251
 5510SOL    HW217972   1.810   3.816  12.160  0.1119 -0.1826 -0.1380
 5511SOL     OW17973   0.577   1.991   9.521  0.2133 -0.1355  0.6508
 5511SOL    HW117974   0.546   1.911   9.563 -0.2672 -0.9794 -1.2529
 5511SOL    HW217975   0.609   2.045   9.594 -0.8572 -1.4098  2.1189
 5512SOL     OW17976   5.249   2.365   9.202 -0.3654 -0.0109  0.3827
 5512SOL    HW117977   5.219   2.311   9.275  1.2707 -0.2846  0.8843
 5512SOL    HW217978   5.338   2.390   9.226  0.4637 -0.6516 -1.8203
 5513SOL     OW17979   3.808   5.340  11.324  0.0944  0.0886 -0.0336
 5513SOL    HW117980   3.747   5.267  11.329 -1.9300  1.7443  1.7115
 5513SOL    HW217981   3.755   5.413  11.290  1.7871  1.0093 -0.8462
 5514SOL     OW17982   7.575   3.789   1.864  0.1424 -0.5081 -0.2827
 5514SOL    HW117983   7.646   3.819   1.807  0.2290  0.7568  0.4400
 5514SOL    HW217984   7.512   3.748   1.805  1.1180 -0.9788 -1.0309
 5515SOL     OW17985   1.124   3.181   4.274  0.4604 -0.1736 -0.1104
 5515SOL    HW117986   1.187   3.155   4.342 -0.7511 -0.3155  0.9947
 5515SOL    HW217987   1.177   3.191   4.195  1.7588 -0.9998  0.6174
 5516SOL     OW17988   4.240   2.827   2.474  0.3581  0.6246  0.2321
 5516SOL    HW117989   4.188   2.819   2.394  2.4621  2.8859 -1.5441
 5516SOL    HW217990   4.252   2.922   2.485  2.5159  0.2645  1.5566
 5517SOL     OW17991   7.425   3.060   7.068  0.2180  0.0686  0.1708
 5517SOL    HW117992   7.482   3.110   7.009  0.9734 -0.2378  0.6242
 5517SOL    HW217993   7.467   3.067   7.154  0.7899 -1.9845  0.1167
 5518SOL     OW17994   1.274   0.592  12.217  0.3461  0.1020 -0.5709
 5518SOL    HW117995   1.247   0.682  12.233 -0.5527  0.0840 -1.8451
 5518SOL    HW217996   1.192   0.542  12.215  0.8897 -0.9773  1.2994
 5519SOL     OW17997   7.531   4.633   3.168  0.1420  0.2227 -0.1546
 5519SOL    HW117998   7.475   4.663   3.096  0.0809 -2.2792 -1.2415
 5519SOL    HW217999   7.551   4.542   3.147  0.9749 -0.3008  2.5081
 5520SOL     OW18000   3.490   3.864   7.725 -0.2778  0.8536  0.2195
 5520SOL    HW118001   3.535   3.856   7.809 -0.1046  1.1151  0.1517
 5520SOL    HW218002   3.411   3.810   7.735  0.8306 -0.9285 -0.2195
 5521SOL     OW18003   1.113   3.257   8.644 -0.0318 -0.6849 -0.4266
 5521SOL    HW118004   1.096   3.322   8.712 -0.7561 -0.1072 -1.1373
 5521SOL    HW218005   1.208   3.251   8.640  0.1014  1.2147 -1.1273
 5522SOL     OW18006   3.441   3.516  11.766  0.1634 -0.3663 -0.4703
 5522SOL    HW118007   3.391   3.583  11.812  0.7591 -0.3205  0.1156
 5522SOL    HW218008   3.414   3.526  11.674 -0.7400 -0.2094 -0.2025
 5523SOL     OW18009   4.390   2.950  11.889  0.0253 -0.0627  0.5107
 5523SOL    HW118010   4.296   2.936  11.891  0.2320 -1.4386  1.8780
 5523SOL    HW218011   4.420   2.900  11.813 -0.3890  0.8941 -0.3097
 5524SOL     OW18012   2.207   1.371   3.917  0.1490  0.0183  0.0785
 5524SOL    HW118013   2.118   1.373   3.952  0.0477 -1.2769 -0.0618
 5524SOL    HW218014   2.262   1.343   3.991  0.1338 -1.2684 -0.3735
 5525SOL     OW18015   0.896   3.159   3.214 -0.3875  0.1245  0.3532
 5525SOL    HW118016   0.991   3.165   3.205 -0.4231  0.3291  0.1179
 5525SOL    HW218017   0.880   3.068   3.237 -0.1139  0.1453  0.6367
 5526SOL     OW18018   5.965   6.704   4.398  0.0594 -0.4016  0.1452
 5526SOL    HW118019   5.960   6.624   4.450  2.9161 -0.6606  0.1894
 5526SOL    HW218020   5.968   6.774   4.463  0.4970 -0.4947  0.2302
 5527SOL     OW18021   4.528   6.836  11.022 -0.3309 -0.1638  0.0365
 5527SOL    HW118022   4.601   6.858  10.965  0.0735 -1.2360  0.1139
 5527SOL    HW218023   4.472   6.913  11.021 -0.8033 -0.4511 -2.5061
 5528SOL     OW18024   3.069   5.420   9.651 -0.0063  0.6244 -0.1427
 5528SOL    HW118025   3.030   5.380   9.729  2.3869 -0.9551  0.3429
 5528SOL    HW218026   3.062   5.514   9.667 -1.4554  0.3683  0.9548
 5529SOL     OW18027   5.446   3.819   7.850 -0.2854  0.4597  0.2276
 5529SOL    HW118028   5.472   3.732   7.881  2.6792  1.3843  0.7302
 5529SOL    HW218029   5.445   3.873   7.929 -2.2424  0.8994 -0.0547
 5530SOL     OW18030   4.069   5.876   3.205  0.1553  0.0240  0.2985
 5530SOL    HW118031   3.987   5.864   3.159  0.3770 -1.7051  0.2885
 5530SOL    HW218032   4.044   5.906   3.293 -0.3580  1.3491 -0.2740
 5531SOL     OW18033   0.264   5.854   5.451  0.1394  0.1351 -0.3295
 5531SOL    HW118034   0.263   5.769   5.406 -1.4650 -0.5794  0.9836
 5531SOL    HW218035   0.199   5.906   5.405 -0.0958  0.0761 -0.0614
 5532SOL     OW18036   6.257   1.181   7.617 -0.1013 -0.2829  0.4224
 5532SOL    HW118037   6.321   1.179   7.689  0.1991  1.6173  0.2602
 5532SOL    HW218038   6.186   1.125   7.647  0.5691 -0.4969  1.6847
 5533SOL     OW18039   4.946   7.378   4.626  0.1374 -0.0868  0.3737
 5533SOL    HW118040   4.908   7.462   4.600  0.9238  0.0833 -0.2787
 5533SOL    HW218041   4.971   7.390   4.718 -1.3451 -0.2042  0.8198
 5534SOL     OW18042   4.832   0.020   2.627 -0.0799  0.0291 -0.0624
 5534SOL    HW118043   4.812   0.108   2.659 -0.8879 -0.1213 -0.1368
 5534SOL    HW218044   4.900   0.034   2.560 -2.3800  0.9862 -2.3565
 5535SOL     OW18045   7.925   5.669   5.314 -0.3212  0.0165 -0.3518
 5535SOL    HW118046   7.892   5.738   5.371  3.5145  2.4553 -0.6677
 5535SOL    HW218047   7.852   5.648   5.256 -2.5586  1.6595  1.6650
 5536SOL     OW18048   0.637   3.960   3.753 -0.4161 -0.6295  0.3072
 5536SOL    HW118049   0.705   3.977   3.818 -2.0491  0.9079  1.7004
 5536SOL    HW218050   0.581   3.895   3.794 -1.2230  0.0289  0.2636
 5537SOL     OW18051   1.928   3.434   7.948 -0.3948 -0.0716 -0.1123
 5537SOL    HW118052   2.001   3.482   7.987 -0.8371  1.4492 -1.0627
 5537SOL    HW218053   1.928   3.460   7.856 -0.9577 -1.5672 -0.5650
 5538SOL     OW18054   5.620   5.082   4.867  0.4423 -0.3154  0.3447
 5538SOL    HW118055   5.529   5.052   4.873 -0.0166  0.8722 -0.2490
 5538SOL    HW218056   5.613   5.177   4.859  1.7188 -0.2510 -0.2239
 5539SOL     OW18057   5.103   0.081   8.540 -0.0591  0.5909 -0.1208
 5539SOL    HW118058   5.157   0.021   8.490 -0.7975  0.9830 -1.4340
 5539SOL    HW218059   5.138   0.077   8.629  2.1395  0.8590 -0.9110
 5540SOL     OW18060   0.432   7.380  10.018  0.2250  0.0447  0.5351
 5540SOL    HW118061   0.520   7.389   9.980  0.1908  0.9917  0.6577
 5540SOL    HW218062   0.447   7.355  10.109  0.3375 -0.7180  0.3185
 5541SOL     OW18063   7.604   0.058   6.398  0.9714  0.3293  0.5763
 5541SOL    HW118064   7.625  -0.034   6.384  3.8224  1.0327 -0.4066
 5541SOL    HW218065   7.589   0.065   6.492 -2.0593 -1.5445  0.3533
 5542SOL     OW18066   1.820   6.379   3.419 -0.1287 -0.3092 -0.0861
 5542SOL    HW118067   1.810   6.303   3.363  0.3788 -0.3344 -0.1475
 5542SOL    HW218068   1.746   6.375   3.479  0.7852 -1.7912  1.0175
 5543SOL     OW18069   1.649   6.046  11.818 -0.7141  0.0260 -0.1320
 5543SOL    HW118070   1.564   6.008  11.797 -0.9064  2.1465 -4.2553
 5543SOL    HW218071   1.629   6.131  11.858 -0.5490  0.2438 -0.5025
 5544SOL     OW18072   0.886   5.270  11.427 -0.6020 -0.1607  0.1246
 5544SOL    HW118073   0.979   5.290  11.438 -0.3188  0.8959 -3.0121
 5544SOL    HW218074   0.884   5.196  11.367 -1.6431  1.7345 -2.4079
 5545SOL     OW18075   3.981   3.069   0.922  0.0061  0.0838 -0.0950
 5545SOL    HW118076   3.975   3.164   0.913  0.1030  0.3185  1.8031
 5545SOL    HW218077   4.075   3.049   0.919  0.2431  0.4635  2.3139
 5546SOL     OW18078   2.447   2.175   7.757 -0.7357  0.3692  0.4857
 5546SOL    HW118079   2.398   2.158   7.837 -0.9580  0.3309  0.3438
 5546SOL    HW218080   2.473   2.089   7.725 -1.6442  0.2921 -0.0985
 5547SOL     OW18081   2.208   1.381   4.747 -0.4471 -0.4982  0.6708
 5547SOL    HW118082   2.201   1.292   4.714  1.1129 -0.1598 -0.6970
 5547SOL    HW218083   2.280   1.420   4.697 -0.4876  1.2447  1.8753
 5548SOL     OW18084   1.341   5.377  10.081 -0.7021  0.1251  0.3836
 5548SOL    HW118085   1.433   5.392  10.058 -0.8007  1.2238  0.6376
 5548SOL    HW218086   1.292   5.412  10.006 -0.9576  1.5934  1.1922
 5549SOL     OW18087   3.850   6.729   3.381 -0.2832  0.1640  0.0992
 5549SOL    HW118088   3.938   6.705   3.410 -0.4314 -0.3629  0.1230
 5549SOL    HW218089   3.864   6.779   3.301 -0.0349 -2.2339 -1.4687
 5550SOL     OW18090   3.525   4.095  10.548  0.4641  0.2503  0.1493
 5550SOL    HW118091   3.499   4.076  10.638  0.1617  1.5937  0.3663
 5550SOL    HW218092   3.463   4.045  10.494 -0.4988  0.8340  0.6900
 5551SOL     OW18093   6.708   3.910   6.743  0.0181  0.7102 -0.4155
 5551SOL    HW118094   6.748   3.878   6.662  0.0932 -0.6112  0.1155
 5551SOL    HW218095   6.710   3.834   6.802 -0.4219  1.5274  0.6777
 5552SOL     OW18096   7.480   6.349   1.515  0.7557 -0.6924  0.3198
 5552SOL    HW118097   7.453   6.388   1.432 -0.3156 -1.5162  0.2683
 5552SOL    HW218098   7.523   6.267   1.491 -1.9426 -2.3306  0.6168
 5553SOL     OW18099   2.894   4.563  11.357  0.0190 -0.6473  0.6926
 5553SOL    HW118100   2.902   4.553  11.262 -0.1511 -0.8236  0.6959
 5553SOL    HW218101   2.812   4.518  11.379 -0.0223 -0.4747  0.9023
 5554SOL     OW18102   4.834   6.926   2.449 -0.1275 -0.2341 -0.7076
 5554SOL    HW118103   4.780   6.946   2.372  0.1664  1.1545 -0.5795
 5554SOL    HW218104   4.854   7.012   2.487 -0.5364 -0.8994  1.1234
 5555SOL     OW18105   3.590   5.970   7.711  0.5631 -0.5569  0.7201
 5555SOL    HW118106   3.652   5.903   7.739  0.4877 -1.8625 -1.9698
 5555SOL    HW218107   3.507   5.943   7.749  0.7089 -1.5250  0.3785
 5556SOL     OW18108   7.497   1.590  11.019  0.1772 -0.0561  0.8487
 5556SOL    HW118109   7.439   1.653  10.977  0.1246 -1.6829 -1.7480
 5556SOL    HW218110   7.439   1.533  11.071 -0.6723 -1.5790 -1.6049
 5557SOL     OW18111   2.930   3.607   7.490  0.7267  0.1702 -0.2039
 5557SOL    HW118112   2.959   3.631   7.578  0.2105  0.3440 -0.0784
 5557SOL    HW218113   2.973   3.523   7.472 -1.1636 -1.1877  1.2522
 5558SOL     OW18114   6.138   0.919   0.616  0.0255 -0.1486  0.7361
 5558SOL    HW118115   6.196   0.870   0.674  0.6466 -0.6728 -0.3150
 5558SOL    HW218116   6.069   0.857   0.593 -1.2375  0.5728  2.2764
 5559SOL     OW18117   1.500   7.219   5.579  0.1718 -0.4842 -0.5334
 5559SOL    HW118118   1.459   7.137   5.608  0.9299 -0.6482  0.1325
 5559SOL    HW218119   1.564   7.192   5.513  1.9170 -0.7282  1.1643
 5560SOL     OW18120   6.970   5.136   8.922  0.6083 -0.1769 -0.1368
 5560SOL    HW118121   6.980   5.044   8.947 -0.7818  0.0043  1.2337
 5560SOL    HW218122   7.031   5.183   8.978 -0.1024 -0.0898  0.5759
 5561SOL     OW18123   2.057   5.987   4.617 -0.0814 -0.2655 -0.4031
 5561SOL    HW118124   2.070   5.929   4.693 -1.3840 -1.7023 -1.2127
 5561SOL    HW218125   2.143   5.992   4.576  0.1279 -1.4382 -0.1618
 5562SOL     OW18126   3.095   3.809   6.818  0.7991  0.2471 -0.1187
 5562SOL    HW118127   3.041   3.806   6.739  0.1683  0.6451  0.2803
 5562SOL    HW218128   3.059   3.882   6.868 -0.0272 -1.1337  1.3959
 5563SOL     OW18129   1.125   7.634   1.862 -0.4169 -0.7171  0.4528
 5563SOL    HW118130   1.062   7.629   1.935 -0.7153 -0.8737  0.1898
 5563SOL    HW218131   1.181   7.709   1.883  0.5293 -1.7226  1.6560
 5564SOL     OW18132   6.781   2.738   6.481  0.2846  0.1587 -0.2899
 5564SOL    HW118133   6.728   2.724   6.559  0.4561 -0.0458 -0.2075
 5564SOL    HW218134   6.730   2.699   6.410 -0.8025  2.0918 -0.6281
 5565SOL     OW18135   5.019   1.047   9.240 -0.4809  0.6333 -0.3300
 5565SOL    HW118136   5.065   0.978   9.192 -0.0671  0.3189  0.4991
 5565SOL    HW218137   4.945   1.002   9.281  0.4690  0.3961  1.2132
 5566SOL     OW18138   5.756   2.022   7.066  0.4301  0.5635 -0.3555
 5566SOL    HW118139   5.845   2.007   7.097  0.5613 -0.5619 -1.2329
 5566SOL    HW218140   5.701   1.994   7.140  0.7658 -1.1111 -0.6891
 5567SOL     OW18141   0.078   0.847   9.337  0.3810 -0.1737 -0.2412
 5567SOL    HW118142   0.035   0.767   9.306  0.2384 -0.0381 -0.3950
 5567SOL    HW218143   0.148   0.816   9.394 -1.0138 -0.3549  1.4629
 5568SOL     OW18144   5.058   0.369   3.652 -0.1413  0.4579 -0.4218
 5568SOL    HW118145   5.135   0.313   3.660 -0.7532 -0.2783  0.3901
 5568SOL    HW218146   4.983   0.310   3.660 -0.8302  1.5626  2.4443
 5569SOL     OW18147   4.922   7.787   4.766  0.3965 -0.8075  0.2545
 5569SOL    HW118148   4.896   7.808   4.855  0.3518  0.6012 -0.0603
 5569SOL    HW218149   4.880   7.703   4.747  0.0810 -0.9252  1.4071
 5570SOL     OW18150   2.276   5.216   5.100 -0.7708 -0.3961 -0.3688
 5570SOL    HW118151   2.303   5.277   5.031  0.9043 -0.3430  0.3128
 5570SOL    HW218152   2.304   5.257   5.181 -0.2532 -1.7484  0.1489
 5571SOL     OW18153   1.429   5.419  11.150  0.2093 -0.1637 -0.4159
 5571SOL    HW118154   1.498   5.389  11.210 -0.6000 -1.4375 -0.0883
 5571SOL    HW218155   1.459   5.505  11.121  0.7321  0.4174  1.6732
 5572SOL     OW18156   1.108   2.447   8.021 -0.8441 -0.5349  0.2136
 5572SOL    HW118157   1.188   2.434   7.968  0.5725  1.5284  1.6972
 5572SOL    HW218158   1.116   2.383   8.092 -0.3431 -0.1527  0.5099
 5573SOL     OW18159   3.089   4.998   3.374  0.4985 -0.0736 -0.2828
 5573SOL    HW118160   2.997   5.014   3.393  0.1987  0.6140 -2.1089
 5573SOL    HW218161   3.128   5.085   3.367  1.0792 -0.3429 -0.4746
 5574SOL     OW18162   3.921   5.393   5.253 -0.4120 -0.3370 -0.0107
 5574SOL    HW118163   3.847   5.334   5.265 -1.3782  0.4792 -1.4751
 5574SOL    HW218164   3.902   5.467   5.310 -1.6640  0.6265 -1.5613
 5575SOL     OW18165   2.090   1.741  10.632  0.6945 -0.0090  0.0624
 5575SOL    HW118166   2.119   1.823  10.672  0.3382  1.0836 -1.8070
 5575SOL    HW218167   2.041   1.768  10.554 -0.8086 -1.9563  0.2446
 5576SOL     OW18168   6.318   7.910   7.950 -0.1982  0.2675 -0.3550
 5576SOL    HW118169   6.344   7.952   7.868  0.1896 -1.1410 -0.9812
 5576SOL    HW218170   6.354   7.967   8.019  0.2823  0.9649 -1.1674
 5577SOL     OW18171   7.875   0.946  10.082  0.3907 -0.5382  0.1881
 5577SOL    HW118172   7.887   1.039  10.063 -0.2037 -0.9455 -2.6053
 5577SOL    HW218173   7.784   0.939  10.109 -1.3624 -0.7777 -4.6708
 5578SOL     OW18174   6.252   5.600   5.435 -0.5295 -0.3666  0.8659
 5578SOL    HW118175   6.211   5.576   5.352  0.2543  1.2793 -0.0371
 5578SOL    HW218176   6.280   5.516   5.473 -0.2356 -1.1002 -0.8912
 5579SOL     OW18177   0.868   0.230   5.306  0.4415  0.0242 -0.0183
 5579SOL    HW118178   0.920   0.198   5.232  0.6784  2.1817 -0.8527
 5579SOL    HW218179   0.790   0.268   5.266 -0.2628 -0.2836  1.0016
 5580SOL     OW18180   5.279   2.598   8.081  0.1942  0.2018 -0.1982
 5580SOL    HW118181   5.223   2.580   8.006 -0.0952  1.6687 -0.3710
 5580SOL    HW218182   5.351   2.534   8.074 -0.0176  0.0771 -1.5032
 5581SOL     OW18183   1.868   4.132   3.153  0.0495 -0.7265  0.2165
 5581SOL    HW118184   1.842   4.145   3.244  0.0689  1.4577 -0.0551
 5581SOL    HW218185   1.936   4.197   3.137 -0.4800 -0.5480 -1.5623
 5582SOL     OW18186   7.611   4.956   6.699 -0.1091  0.3793 -0.0307
 5582SOL    HW118187   7.560   4.996   6.628 -1.0445  0.3295  0.6036
 5582SOL    HW218188   7.597   5.012   6.774  1.0760  0.5638  0.0849
 5583SOL     OW18189   0.808   2.819   4.695 -0.1729  0.4219 -0.3756
 5583SOL    HW118190   0.865   2.850   4.626  1.8553  0.8099  1.3829
 5583SOL    HW218191   0.847   2.852   4.776 -2.0217 -0.6238  1.0362
 5584SOL     OW18192   4.082   7.009   4.390  0.8087 -0.1619  0.2035
 5584SOL    HW118193   4.088   6.967   4.476  0.9133 -1.2826 -0.3312
 5584SOL    HW218194   3.988   7.009   4.371  0.4958  2.2135  1.2914
 5585SOL     OW18195   5.790   2.838   1.959 -0.1231 -0.0196  0.3624
 5585SOL    HW118196   5.786   2.896   1.882  1.5170 -2.4729 -1.7237
 5585SOL    HW218197   5.758   2.754   1.927  0.5359 -1.1166  2.4325
 5586SOL     OW18198   6.347   1.753   3.547  0.3594  0.0790  0.2551
 5586SOL    HW118199   6.437   1.725   3.531  0.1102 -0.9820  0.6196
 5586SOL    HW218200   6.340   1.757   3.642  0.0929  0.3798  0.2223
 5587SOL     OW18201   2.687   5.315  11.612  0.0265 -0.3821  0.1967
 5587SOL    HW118202   2.626   5.365  11.557 -2.1944 -2.7616  0.3294
 5587SOL    HW218203   2.742   5.267  11.549 -0.7820 -1.1157  0.0364
 5588SOL     OW18204   1.154   2.672   1.346  0.4814  0.3219  0.1261
 5588SOL    HW118205   1.207   2.654   1.424  0.2631 -0.4385  0.1044
 5588SOL    HW218206   1.089   2.602   1.345 -0.0851  0.8509 -0.2355
 5589SOL     OW18207   7.243   1.175   6.804 -0.3526  0.5113  0.6346
 5589SOL    HW118208   7.232   1.264   6.770  0.3137 -0.0166 -1.0859
 5589SOL    HW218209   7.156   1.136   6.798 -0.5462  0.8914  0.9453
 5590SOL     OW18210   1.858   6.238   0.598  0.1587  0.2424  0.7563
 5590SOL    HW118211   1.770   6.203   0.595 -0.0340  0.7270  0.6358
 5590SOL    HW218212   1.859   6.308   0.533  0.5588  0.4004  0.9251
 5591SOL     OW18213   0.659   4.243   9.181 -0.0586  0.3301  0.1669
 5591SOL    HW118214   0.597   4.282   9.119 -0.6995 -1.1126 -0.1493
 5591SOL    HW218215   0.675   4.156   9.146  0.8354  0.0694  1.1853
 5592SOL     OW18216   3.710   6.778  10.066  0.8131  0.7021 -0.5560
 5592SOL    HW118217   3.751   6.730  10.138  0.2997  1.7742  0.4918
 5592SOL    HW218218   3.636   6.823  10.107 -2.2894 -2.1220 -2.5845
 5593SOL     OW18219   1.105   5.158   5.069  1.0373  0.3842 -0.6808
 5593SOL    HW118220   1.070   5.071   5.088  0.9963  0.5196 -0.1323
 5593SOL    HW218221   1.076   5.176   4.979 -1.1571  0.8940  0.0734
 5594SOL     OW18222   1.835   0.649   9.745  0.2027  0.0994  0.5381
 5594SOL    HW118223   1.750   0.675   9.710 -0.9273 -0.6235  2.5810
 5594SOL    HW218224   1.852   0.563   9.706 -1.2158 -0.8705  1.9115
 5595SOL     OW18225   3.607   1.394  12.092 -0.0969 -0.1421 -0.2771
 5595SOL    HW118226   3.598   1.485  12.066 -2.2018 -0.0000  0.7893
 5595SOL    HW218227   3.650   1.352  12.017  0.0597  1.5346 -1.1590
 5596SOL     OW18228   0.647   7.458   1.265  0.0070  0.2540 -0.1347
 5596SOL    HW118229   0.633   7.404   1.343 -1.2761 -1.8658 -1.7214
 5596SOL    HW218230   0.560   7.492   1.244 -0.2849 -1.5456 -2.1878
 5597SOL     OW18231   5.688   0.113   6.326  0.0642 -0.0602  0.9704
 5597SOL    HW118232   5.773   0.069   6.328 -0.1908 -0.6401 -0.3539
 5597SOL    HW218233   5.673   0.132   6.234 -1.5029 -0.4467  1.1232
 5598SOL     OW18234   6.884   5.770  10.562  0.4261 -0.0539 -0.2933
 5598SOL    HW118235   6.970   5.811  10.554  0.9877 -0.9467  0.8158
 5598SOL    HW218236   6.822   5.842  10.557  1.2009  0.5654 -1.5595
 5599SOL     OW18237   6.326   6.105  11.512  0.6321  0.4600 -0.6686
 5599SOL    HW118238   6.397   6.042  11.498  1.8940  1.7228 -0.2345
 5599SOL    HW218239   6.257   6.054  11.554  1.9919 -0.4563  0.5570
 5600SOL     OW18240   0.827   6.181   0.068 -0.6053 -0.5523 -0.1341
 5600SOL    HW118241   0.843   6.237  -0.008  0.0966 -0.5400  0.0156
 5600SOL    HW218242   0.859   6.231   0.143 -2.2794 -0.1135  0.3321
 5601SOL     OW18243   7.609   1.197   5.756  0.5305  0.1400  0.4726
 5601SOL    HW118244   7.569   1.160   5.677  0.4333 -0.2490  0.7038
 5601SOL    HW218245   7.580   1.288   5.757 -0.3837 -0.1441  0.6541
 5602SOL     OW18246   0.864   6.551   5.390 -0.2276 -0.3454  0.1916
 5602SOL    HW118247   0.803   6.619   5.362 -0.0855 -0.4629 -0.4291
 5602SOL    HW218248   0.925   6.595   5.449  0.5429  0.3429 -1.0810
 5603SOL     OW18249   4.540   1.243   0.872 -0.0051 -0.0978  0.2063
 5603SOL    HW118250   4.530   1.172   0.934 -0.1364 -0.6539 -0.4373
 5603SOL    HW218251   4.462   1.238   0.817  0.7899 -0.5333 -0.9207
 5604SOL     OW18252   2.951   1.296  10.868  0.3892 -0.0031 -0.7552
 5604SOL    HW118253   2.935   1.350  10.791  1.1930  0.1531 -0.8173
 5604SOL    HW218254   2.907   1.213  10.848 -0.6085  0.5168 -0.7717
 5605SOL     OW18255   0.330   5.008  10.248 -0.0103 -0.4903  0.1018
 5605SOL    HW118256   0.331   5.096  10.286 -0.8388 -0.4185 -0.0273
 5605SOL    HW218257   0.356   5.021  10.157  1.0244 -0.5381  0.3802
 5606SOL     OW18258   2.516   6.601   5.506 -0.0328  0.1899 -0.4383
 5606SOL    HW118259   2.455   6.577   5.437  0.7964 -2.4207 -0.3817
 5606SOL    HW218260   2.462   6.612   5.584 -0.6915  0.5401 -0.9396
 5607SOL     OW18261   3.908   2.477  11.725 -0.0943  0.2949  0.1843
 5607SOL    HW118262   3.932   2.504  11.814 -1.8573  1.1917  0.4354
 5607SOL    HW218263   3.820   2.442  11.733  0.6487 -1.9784 -0.8377
 5608SOL     OW18264   0.079   7.402  10.734  0.0099 -0.0971  0.2666
 5608SOL    HW118265   0.138   7.346  10.684  0.2305 -0.8999  1.3837
 5608SOL    HW218266  -0.003   7.400  10.686  1.3277  2.6249 -2.4487
 5609SOL     OW18267   1.676   6.035   8.271 -0.7082  0.6651 -0.0165
 5609SOL    HW118268   1.616   5.961   8.268 -0.6335  0.5213  1.2244
 5609SOL    HW218269   1.631   6.099   8.328 -0.2216  1.0549 -0.0639
 5610SOL     OW18270   5.084   2.120   9.855 -0.1050  0.0448  0.0621
 5610SOL    HW118271   5.083   2.133   9.761  0.7489  0.2282  0.0678
 5610SOL    HW218272   5.006   2.164   9.887 -0.5198 -0.2153 -0.5788
 5611SOL     OW18273   1.823   0.391  11.757 -0.1105 -0.5297 -0.8098
 5611SOL    HW118274   1.858   0.393  11.846  0.7642 -0.8669 -1.1368
 5611SOL    HW218275   1.874   0.457  11.710  0.1430 -1.0696 -1.3102
 5612SOL     OW18276   2.934   1.092  11.610  0.1363 -0.3627  0.1847
 5612SOL    HW118277   2.982   1.030  11.665 -0.6996 -0.8342  0.4129
 5612SOL    HW218278   2.850   1.049  11.594  0.7949 -0.8320 -2.5340
 5613SOL     OW18279   6.792   4.467   3.029  0.1724  0.0072 -0.4059
 5613SOL    HW118280   6.703   4.499   3.011 -1.0592 -1.8211  1.9833
 5613SOL    HW218281   6.839   4.545   3.058 -0.8420  0.8907 -1.0339
 5614SOL     OW18282   0.268   2.899  11.057  0.0494 -0.2077  0.2507
 5614SOL    HW118283   0.328   2.875  11.127 -1.1276  0.4778  1.5414
 5614SOL    HW218284   0.309   2.866  10.977  1.7036 -0.4930  1.1883
 5615SOL     OW18285   2.418   7.565   1.214  0.5443 -0.4655  0.3098
 5615SOL    HW118286   2.411   7.479   1.174 -0.3014  0.7285 -2.3169
 5615SOL    HW218287   2.334   7.608   1.197  1.4333  1.3930  0.2631
 5616SOL     OW18288   1.033   7.908   3.106  0.3019  0.1123 -0.4546
 5616SOL    HW118289   0.994   7.878   3.188  0.1919  2.3856  0.4084
 5616SOL    HW218290   1.121   7.870   3.106  0.7201  0.9876  1.3181
 5617SOL     OW18291   1.077   1.851  12.228  0.0776 -0.2219  0.9477
 5617SOL    HW118292   1.056   1.931  12.277  1.4181 -1.8465  4.5485
 5617SOL    HW218293   0.993   1.808  12.215 -0.4153  0.7100  0.9526
 5618SOL     OW18294   6.928   4.019   6.496  0.5578  0.2834 -0.1604
 5618SOL    HW118295   6.926   3.927   6.471 -2.1586  0.7630 -2.0916
 5618SOL    HW218296   6.971   4.063   6.422 -0.8801  0.8712 -0.6801
 5619SOL     OW18297   6.454   3.821   4.248  0.0529 -0.4423  0.0847
 5619SOL    HW118298   6.413   3.884   4.189  2.2127  1.1554  0.2110
 5619SOL    HW218299   6.482   3.749   4.191  1.0295  0.5260 -0.6969
 5620SOL     OW18300   5.913   7.877   3.475 -0.1439  0.0411  0.5410
 5620SOL    HW118301   5.898   7.936   3.549 -0.8830  0.5659 -0.0145
 5620SOL    HW218302   5.828   7.868   3.433 -0.3396 -2.3386  1.2535
 5621SOL     OW18303   6.852   3.276   0.024 -0.0570 -0.3629  0.2403
 5621SOL    HW118304   6.762   3.308   0.013 -0.5566 -1.2660  1.4382
 5621SOL    HW218305   6.879   3.309   0.109  0.5056 -0.6575  0.1763
 5622SOL     OW18306   2.358   0.667   5.434 -0.0386 -0.4139  0.2503
 5622SOL    HW118307   2.269   0.693   5.411 -0.4255 -1.3285  0.6229
 5622SOL    HW218308   2.414   0.722   5.381 -0.7296  2.1226  1.9504
 5623SOL     OW18309   1.450   5.958   2.359  0.4794 -0.3465 -0.2912
 5623SOL    HW118310   1.423   6.034   2.307  1.7322 -0.3046 -0.9085
 5623SOL    HW218311   1.530   5.986   2.404  0.6870 -1.1354 -0.1454
 5624SOL     OW18312   3.228   2.260  11.541  0.6129  0.2136  0.0285
 5624SOL    HW118313   3.158   2.252  11.606  0.5664  0.0959 -0.0343
 5624SOL    HW218314   3.277   2.178  11.549  0.9437  0.4380  0.3015
 5625SOL     OW18315   3.268   7.210   7.698  0.3772  0.8385  0.1563
 5625SOL    HW118316   3.211   7.286   7.711 -1.1280  0.1981 -2.0535
 5625SOL    HW218317   3.350   7.248   7.665  0.6932  1.6541  1.7643
 5626SOL     OW18318   6.107   2.432   6.836  0.8187  0.1117  0.0929
 5626SOL    HW118319   6.026   2.438   6.887  1.3132 -1.1003  1.0864
 5626SOL    HW218320   6.130   2.339   6.838  0.7795 -0.0258 -2.5512
 5627SOL     OW18321   2.188   1.718   0.486 -0.0184 -0.3339 -0.2867
 5627SOL    HW118322   2.205   1.760   0.402 -0.4156  0.1143 -0.1448
 5627SOL    HW218323   2.227   1.776   0.551  0.4718 -0.7833 -0.1662
 5628SOL     OW18324   5.615   5.357   7.484  0.0686 -0.7376 -0.4360
 5628SOL    HW118325   5.582   5.443   7.512 -1.0628 -1.3811  0.2497
 5628SOL    HW218326   5.616   5.362   7.388 -0.1630 -0.0185 -0.4072
 5629SOL     OW18327   3.232   6.484   4.372 -0.4621  0.2019 -0.2475
 5629SOL    HW118328   3.292   6.477   4.446  0.5146  1.1118 -0.9228
 5629SOL    HW218329   3.265   6.558   4.322 -0.7581 -0.7419 -1.9087
 5630SOL     OW18330   3.302   1.449   9.286 -0.7789  0.6314  0.3225
 5630SOL    HW118331   3.388   1.408   9.293 -0.9953  0.4789  3.1666
 5630SOL    HW218332   3.320   1.543   9.293 -0.7624  0.6656 -0.1699
 5631SOL     OW18333   6.669   7.767  11.567  0.3593 -0.2384  0.3461
 5631SOL    HW118334   6.635   7.701  11.507  1.0620 -0.3195  0.0301
 5631SOL    HW218335   6.591   7.801  11.611 -0.0535 -0.9538  0.1859
 5632SOL     OW18336   1.213   5.017   9.880  1.0249 -0.4173 -0.4600
 5632SOL    HW118337   1.211   5.076   9.805 -1.9855  1.6782  1.0343
 5632SOL    HW218338   1.181   5.070   9.953  0.1666 -3.3271  1.4663
 5633SOL     OW18339   6.777   2.867   8.148 -0.2044 -0.4624 -0.1036
 5633SOL    HW118340   6.731   2.918   8.081  1.6080 -1.0356 -1.8855
 5633SOL    HW218341   6.708   2.844   8.211 -1.5106  2.2128 -0.3854
 5634SOL     OW18342   2.962   2.626   7.619  0.3782 -0.0391 -0.2039
 5634SOL    HW118343   3.038   2.588   7.576  0.0012 -0.4930 -0.4712
 5634SOL    HW218344   2.928   2.556   7.675  1.5161  0.8679  1.7327
 5635SOL     OW18345   3.150   0.309   2.450  0.3414  0.5479  0.4327
 5635SOL    HW118346   3.081   0.360   2.407  1.2210  0.5460 -1.0601
 5635SOL    HW218347   3.200   0.271   2.378 -0.4217 -2.7335  1.4588
 5636SOL     OW18348   4.127   6.472  10.843 -0.2330 -0.3901  0.5810
 5636SOL    HW118349   4.191   6.449  10.910 -0.4834  0.6106  1.1798
 5636SOL    HW218350   4.121   6.567  10.846 -1.2326 -0.4179  0.0519
 5637SOL     OW18351   5.004   1.726   1.143 -0.4456 -1.0432  0.3298
 5637SOL    HW118352   4.932   1.669   1.115 -1.5990 -0.3867  1.8634
 5637SOL    HW218353   4.985   1.747   1.234  1.3090 -0.2387  0.5558
 5638SOL     OW18354   1.933   3.024   7.933 -0.1138  0.4724  0.2325
 5638SOL    HW118355   1.956   2.942   7.890 -0.5642  0.4382  0.0596
 5638SOL    HW218356   2.018   3.066   7.952  0.0870  0.7347 -1.1681
 5639SOL     OW18357   2.294   0.548  10.122  0.0056 -0.5501 -1.0678
 5639SOL    HW118358   2.251   0.518  10.042 -1.1884  0.4632 -0.8514
 5639SOL    HW218359   2.295   0.472  10.179 -1.4431 -0.6536 -1.1337
 5640SOL     OW18360   5.989   1.453  11.058 -0.5538  0.4469  0.1584
 5640SOL    HW118361   6.004   1.537  11.100 -0.7307  0.3164  0.4889
 5640SOL    HW218362   6.072   1.407  11.066 -0.2563  0.8340 -0.6009
 5641SOL     OW18363   6.603   1.337   9.793  0.6631 -0.0286  0.1123
 5641SOL    HW118364   6.539   1.265   9.793  0.2531  0.3224  0.7913
 5641SOL    HW218365   6.566   1.402   9.733  0.1418  0.3686  0.8467
 5642SOL     OW18366   3.674   2.761   0.197 -0.1332 -0.3745  0.6294
 5642SOL    HW118367   3.602   2.771   0.134 -0.8681 -1.6894  1.2195
 5642SOL    HW218368   3.707   2.850   0.208 -0.0260 -0.0853 -1.5249
 5643SOL     OW18369   4.736   4.029   0.322 -0.0433 -0.5528  0.0520
 5643SOL    HW118370   4.722   3.950   0.374 -1.4892  0.4975  1.3504
 5643SOL    HW218371   4.828   4.052   0.337  0.9387 -2.9212 -1.7896
 5644SOL     OW18372   5.820   7.265   7.221 -0.6588  0.5813 -0.1418
 5644SOL    HW118373   5.832   7.359   7.234  0.6375  0.3797  0.2827
 5644SOL    HW218374   5.855   7.226   7.301 -1.4026 -0.2663 -0.2146
 5645SOL     OW18375   0.802   0.001   4.644  0.8187 -0.2804 -0.1303
 5645SOL    HW118376   0.802  -0.023   4.551 -0.7970  0.5961 -0.3982
 5645SOL    HW218377   0.837  -0.076   4.689  0.7530 -1.0742 -1.3936
 5646SOL     OW18378   4.575   3.444   7.877 -0.4399  0.3075  0.0384
 5646SOL    HW118379   4.590   3.421   7.785 -0.0569  0.7645 -0.0191
 5646SOL    HW218380   4.555   3.361   7.920 -2.5082  0.3258 -0.8140
 5647SOL     OW18381   1.045   1.874   0.425  0.5281 -0.5751  0.4188
 5647SOL    HW118382   0.996   1.879   0.343  1.0961 -0.4651  0.0780
 5647SOL    HW218383   1.059   1.780   0.440 -1.4746 -0.7397  1.5570
 5648SOL     OW18384   7.061   0.573   4.675 -1.0437 -0.3572 -0.2154
 5648SOL    HW118385   6.973   0.537   4.662 -1.7244  1.0053  0.3554
 5648SOL    HW218386   7.072   0.575   4.770  0.2528 -1.9418 -0.2998
 5649SOL     OW18387   4.551   0.111  11.668 -0.3537 -0.2603  0.3882
 5649SOL    HW118388   4.495   0.162  11.727  0.1223  0.8871 -0.1099
 5649SOL    HW218389   4.629   0.092  11.719 -0.5594 -0.5360  0.5986
 5650SOL     OW18390   5.475   4.745   0.443 -0.1407  0.0613 -0.2778
 5650SOL    HW118391   5.561   4.786   0.443  0.7643 -1.3833  3.5284
 5650SOL    HW218392   5.493   4.651   0.431 -1.5345 -0.0253 -2.2351
 5651SOL     OW18393   5.268   6.345   3.569  0.0518 -0.2801 -0.6974
 5651SOL    HW118394   5.293   6.437   3.577 -0.9414 -0.0919  0.6289
 5651SOL    HW218395   5.350   6.297   3.581  0.2678  0.3880  0.6399
 5652SOL     OW18396   2.458   2.416  10.170 -0.1753 -0.8173  0.1779
 5652SOL    HW118397   2.527   2.457  10.117 -1.1200  0.1253 -0.3639
 5652SOL    HW218398   2.503   2.386  10.249  0.9686 -0.7984 -0.4440
 5653SOL     OW18399   4.308   3.782   0.173  0.5528  0.3149 -0.4390
 5653SOL    HW118400   4.249   3.714   0.140 -1.9930  1.6244  1.1188
 5653SOL    HW218401   4.271   3.864   0.140  1.9025  1.1609  0.0765
 5654SOL     OW18402   0.374   2.939   8.248  0.1956  0.0401 -0.3418
 5654SOL    HW118403   0.402   2.849   8.232 -0.3448  0.0222 -1.2858
 5654SOL    HW218404   0.446   2.993   8.215  0.8528 -0.0351  0.9091
 5655SOL     OW18405   6.435   6.796   1.713  0.1915 -0.8196 -0.5722
 5655SOL    HW118406   6.377   6.862   1.751 -1.8023 -1.6487 -2.0038
 5655SOL    HW218407   6.466   6.745   1.789 -0.5721 -0.0509  0.2783
 5656SOL     OW18408   3.633   5.378  10.348  0.6769  0.6059  0.1590
 5656SOL    HW118409   3.540   5.394  10.332  0.3810 -1.2462 -0.1265
 5656SOL    HW218410   3.635   5.323  10.426  1.5396  0.6428  0.1707
 5657SOL     OW18411   6.862   6.545   1.043  0.5465 -0.5974  0.0743
 5657SOL    HW118412   6.930   6.594   1.089  0.6437 -0.3608 -0.3137
 5657SOL    HW218413   6.838   6.601   0.969  2.0819 -1.9730 -1.5781
 5658SOL     OW18414   2.945   3.211   3.661 -0.3600  0.0959 -0.1386
 5658SOL    HW118415   2.908   3.234   3.575 -2.4369 -0.1484  0.6379
 5658SOL    HW218416   3.009   3.280   3.679 -1.8189  1.6742 -0.7131
 5659SOL     OW18417   1.145   0.968   7.729  0.3063  1.0978 -0.6652
 5659SOL    HW118418   1.223   1.021   7.713  1.1184  0.2884  0.4145
 5659SOL    HW218419   1.168   0.880   7.699  0.2331  0.6020  0.6513
 5660SOL     OW18420   0.020   0.898   0.649  0.1947  0.3753  0.0016
 5660SOL    HW118421   0.072   0.896   0.568  0.3560 -0.0395  0.1089
 5660SOL    HW218422   0.081   0.928   0.716  0.2589  0.0284  0.1010
 5661SOL     OW18423   6.451   6.831   0.634 -0.1745 -0.0347  0.5499
 5661SOL    HW118424   6.530   6.866   0.594 -0.0271 -0.6360  0.2931
 5661SOL    HW218425   6.459   6.853   0.727  1.7350 -2.5114  1.0926
 5662SOL     OW18426   5.395   0.748   4.934 -0.0127 -0.5907 -0.2616
 5662SOL    HW118427   5.420   0.671   4.985  1.5795 -0.2546 -0.4892
 5662SOL    HW218428   5.389   0.818   4.999  0.4393 -0.4963 -0.3242
 5663SOL     OW18429   2.686   2.033   2.260 -1.1354 -0.3463  0.2869
 5663SOL    HW118430   2.771   2.072   2.277 -1.2737  1.1817 -2.0107
 5663SOL    HW218431   2.651   2.011   2.346  1.1066 -0.0327  1.3333
 5664SOL     OW18432   7.780   0.861  11.153 -0.1970  0.2987 -0.0615
 5664SOL    HW118433   7.840   0.871  11.227  0.8438  0.5329 -0.9193
 5664SOL    HW218434   7.781   0.767  11.134  1.1325  0.4713 -1.0381
 5665SOL     OW18435   2.121   7.493   4.939 -0.6478  0.2019  0.5986
 5665SOL    HW118436   2.200   7.491   4.994 -0.7072  0.0554  0.6807
 5665SOL    HW218437   2.081   7.406   4.952 -0.2642 -0.1109 -0.2614
 5666SOL     OW18438   7.465   5.481   5.356 -0.6450 -0.3749 -0.3895
 5666SOL    HW118439   7.508   5.421   5.417 -0.8133  0.0310  0.1345
 5666SOL    HW218440   7.390   5.431   5.323 -0.2291 -0.7982 -0.7016
 5667SOL     OW18441   4.390   0.585   7.632 -0.4495  0.3768  0.2796
 5667SOL    HW118442   4.321   0.651   7.632 -2.2856 -1.4609 -0.2718
 5667SOL    HW218443   4.406   0.566   7.540  0.5349  0.4802  0.4120
 5668SOL     OW18444   4.706   5.676   6.103 -0.0155  0.3064  0.6622
 5668SOL    HW118445   4.704   5.695   6.009 -0.1423  0.0291  0.6063
 5668SOL    HW218446   4.732   5.758   6.144  0.6803  0.2582  0.3356
 5669SOL     OW18447   0.687   0.944   2.861 -0.1247 -0.3404  0.0817
 5669SOL    HW118448   0.748   0.908   2.796  0.5852  1.3823 -0.2638
 5669SOL    HW218449   0.744   0.987   2.925 -0.9460  0.6601  0.1550
 5670SOL     OW18450   2.943   7.152   3.164 -0.2198 -0.0165  0.3859
 5670SOL    HW118451   2.851   7.136   3.184 -0.1266  1.0235  1.8072
 5670SOL    HW218452   2.991   7.100   3.230  0.2184 -0.3838 -0.2120
 5671SOL     OW18453   3.755   0.932  11.707 -0.1800 -0.0572 -0.3374
 5671SOL    HW118454   3.776   0.880  11.629  2.2683 -0.6904  0.6760
 5671SOL    HW218455   3.795   1.017  11.690  0.8732 -0.3817  0.4376
 5672SOL     OW18456   0.208   1.933  10.911 -0.4913 -0.3387 -0.1639
 5672SOL    HW118457   0.274   1.967  10.852  1.2873 -0.3513  1.7126
 5672SOL    HW218458   0.257   1.878  10.973 -1.6314  2.2611  3.3534
 5673SOL     OW18459   5.291   3.288   7.401 -0.3606  0.0892 -0.5299
 5673SOL    HW118460   5.351   3.291   7.327  0.3307 -0.5555 -0.0015
 5673SOL    HW218461   5.206   3.269   7.361 -0.0491  0.0353 -1.1855
 5674SOL     OW18462   4.611   6.928   6.090  0.0144 -0.2345  0.5299
 5674SOL    HW118463   4.679   6.995   6.077 -1.1353  1.4740  2.5681
 5674SOL    HW218464   4.643   6.852   6.041  1.8367  1.4823 -1.1816
 5675SOL     OW18465   2.875   1.301   5.119  0.2737 -0.0302 -0.0230
 5675SOL    HW118466   2.821   1.235   5.162  1.1102 -1.1015 -0.5637
 5675SOL    HW218467   2.894   1.265   5.033 -1.2760  2.0210 -1.3102
 5676SOL     OW18468   2.914   3.390  10.908  0.7109  0.2353 -0.6432
 5676SOL    HW118469   2.830   3.406  10.866  0.6144  0.2602 -0.4370
 5676SOL    HW218470   2.897   3.322  10.973  0.5214  1.3460  0.4911
 5677SOL     OW18471   4.685   1.332   7.537 -0.1230  0.4583  0.2694
 5677SOL    HW118472   4.702   1.247   7.498 -0.5712  0.6430 -0.3486
 5677SOL    HW218473   4.705   1.321   7.629  0.1036 -0.2343  0.1407
 5678SOL     OW18474   5.933   1.223   0.780 -0.0161  0.6461 -0.0819
 5678SOL    HW118475   6.020   1.209   0.819 -0.2648  1.0647  0.6495
 5678SOL    HW218476   5.915   1.316   0.797 -0.7790  0.4604  0.1228
 5679SOL     OW18477   5.167   3.748  11.264  0.3806 -0.0887  0.2906
 5679SOL    HW118478   5.108   3.786  11.198  1.1781 -0.6080 -0.7410
 5679SOL    HW218479   5.164   3.654  11.248  1.0855 -0.1667  0.5727
 5680SOL     OW18480   7.923   3.736  11.699 -0.5535 -0.1923 -0.5700
 5680SOL    HW118481   8.014   3.763  11.717 -0.6302 -0.1001 -0.3188
 5680SOL    HW218482   7.928   3.641  11.689 -0.6022 -0.3216  0.5289
 5681SOL     OW18483   6.636   0.846   9.413 -0.1923  0.1067  0.3239
 5681SOL    HW118484   6.625   0.852   9.508  1.9586  1.6782  0.5455
 5681SOL    HW218485   6.678   0.761   9.400  0.1882  0.2032  0.8713
 5682SOL     OW18486   1.197   6.825   7.188  0.0361  0.4057  0.0754
 5682SOL    HW118487   1.288   6.795   7.190  0.0489  0.4365 -0.0565
 5682SOL    HW218488   1.201   6.913   7.151  0.2538  1.4903  2.4880
 5683SOL     OW18489   6.945   3.142   2.675 -0.1928  0.6550 -0.4205
 5683SOL    HW118490   6.932   3.103   2.589 -1.1416  1.5589 -0.7066
 5683SOL    HW218491   6.968   3.233   2.658 -0.3475  0.8337  0.2755
 5684SOL     OW18492   1.650   1.348   8.226 -0.2910  0.2010 -0.0107
 5684SOL    HW118493   1.613   1.265   8.195 -2.1943  1.3142 -0.9217
 5684SOL    HW218494   1.683   1.328   8.313 -1.1536 -1.4028  0.0048
 5685SOL     OW18495   5.135   7.870   0.321  0.4385 -0.3530 -0.3070
 5685SOL    HW118496   5.065   7.925   0.355  0.5170 -0.4090 -0.0581
 5685SOL    HW218497   5.185   7.844   0.398  1.2469  0.4007 -0.5624
 5686SOL     OW18498   4.359   7.023   7.818  0.1888  0.8562  0.1852
 5686SOL    HW118499   4.330   7.077   7.891 -0.6353 -0.1450  0.6255
 5686SOL    HW218500   4.316   6.939   7.832  0.7992  0.3376 -0.9227
 5687SOL     OW18501   1.100   3.945   6.922  0.0545 -0.2999  0.5613
 5687SOL    HW118502   1.061   3.893   6.851  1.7936 -1.4932  0.4338
 5687SOL    HW218503   1.174   3.893   6.952  3.0463  2.8471 -0.7488
 5688SOL     OW18504   2.763   5.950   7.317 -0.0461  0.2950 -0.4565
 5688SOL    HW118505   2.804   5.863   7.313  3.7569  1.7190  1.9215
 5688SOL    HW218506   2.669   5.932   7.318  0.5033 -3.6628 -1.3029
 5689SOL     OW18507   3.379   2.227   7.690  0.1342  0.0431 -0.1540
 5689SOL    HW118508   3.422   2.143   7.706  1.0591  0.1293 -1.9944
 5689SOL    HW218509   3.289   2.204   7.670  0.6248 -0.6331 -1.6952
 5690SOL     OW18510   5.338   1.604   6.696 -0.3511 -0.1656  0.4467
 5690SOL    HW118511   5.267   1.585   6.757 -0.4871 -2.2440 -0.3005
 5690SOL    HW218512   5.319   1.551   6.619  0.6896  1.1591 -0.7666
 5691SOL     OW18513   1.668   6.749   0.359 -0.1271  0.3024  0.4403
 5691SOL    HW118514   1.637   6.667   0.321 -0.8754  0.7229  0.1076
 5691SOL    HW218515   1.710   6.724   0.441  0.1267 -0.4624  0.0827
 5692SOL     OW18516   4.839   5.319   3.768 -0.4349 -0.1801 -0.0510
 5692SOL    HW118517   4.776   5.343   3.836 -0.5143  0.7482 -0.4504
 5692SOL    HW218518   4.790   5.322   3.686 -0.9071 -3.3304 -0.0126
 5693SOL     OW18519   7.677   6.111   8.858 -0.0735 -0.3776  0.2082
 5693SOL    HW118520   7.656   6.200   8.886  0.8420  0.5797 -1.8834
 5693SOL    HW218521   7.746   6.082   8.917  2.3855  1.8610 -1.3579
 5694SOL     OW18522   3.308   4.387   8.307  0.0694 -0.0705  0.0891
 5694SOL    HW118523   3.344   4.393   8.218 -0.6101 -4.3372 -0.6584
 5694SOL    HW218524   3.385   4.390   8.364  0.9190 -1.2966 -0.9548
 5695SOL     OW18525   7.419   1.577  10.112 -0.5566  0.0589  0.3681
 5695SOL    HW118526   7.470   1.609  10.186 -1.0253  0.8477  0.3668
 5695SOL    HW218527   7.403   1.654  10.058 -1.1649 -0.2991  0.0165
 5696SOL     OW18528   7.925   5.507   2.220 -0.0946 -0.2193 -0.4426
 5696SOL    HW118529   7.896   5.546   2.137  0.3636 -1.9598 -1.4731
 5696SOL    HW218530   7.879   5.557   2.287  0.6579  2.2495 -1.6278
 5697SOL     OW18531   0.960   0.846   2.015  0.0702  0.3103  0.3657
 5697SOL    HW118532   0.889   0.790   1.985  0.0447  0.6444 -0.1991
 5697SOL    HW218533   1.002   0.796   2.086 -1.1786  0.4276  1.2159
 5698SOL     OW18534   1.548   3.064  11.818  0.3525 -0.3662  0.1151
 5698SOL    HW118535   1.622   3.122  11.838 -0.7203  0.6344  1.3421
 5698SOL    HW218536   1.563   3.037  11.727  0.5789  2.3312 -0.7344
 5699SOL     OW18537   7.778   5.864  10.958  0.4158 -1.2363 -0.9411
 5699SOL    HW118538   7.816   5.951  10.948  0.9342 -1.0541  1.7378
 5699SOL    HW218539   7.684   5.878  10.951  0.3972 -0.1511  0.7694
 5700SOL     OW18540   2.675   5.887   1.364 -0.0522 -0.1669 -0.3908
 5700SOL    HW118541   2.738   5.831   1.409  0.4658  0.9699  0.3507
 5700SOL    HW218542   2.719   5.915   1.284  0.1902  0.2112 -0.1268
 5701SOL     OW18543   4.440   1.308   1.231 -0.3670  0.0296  0.3012
 5701SOL    HW118544   4.380   1.238   1.204  0.4070 -0.0111 -1.4542
 5701SOL    HW218545   4.390   1.388   1.218 -0.9639 -0.1159  1.5122
 5702SOL     OW18546   2.417   3.903   3.589  0.3149  0.0537 -0.0805
 5702SOL    HW118547   2.489   3.865   3.538  0.5621  2.8062 -2.0638
 5702SOL    HW218548   2.397   3.985   3.543 -2.5303  0.5362  1.7834
 5703SOL     OW18549   2.971   7.773  11.008 -0.1869 -0.3281 -0.0746
 5703SOL    HW118550   3.053   7.724  11.009  0.9019  1.4365  0.5507
 5703SOL    HW218551   2.953   7.787  10.915 -1.2185 -2.9227 -0.3555
 5704SOL     OW18552   0.970   5.994   8.320 -0.6630 -0.3530  0.1190
 5704SOL    HW118553   1.038   5.965   8.259  0.4127 -1.1967  1.6351
 5704SOL    HW218554   0.891   5.949   8.292 -0.1508 -0.8814 -0.5257
 5705SOL     OW18555   3.681   2.833   8.983  0.3799 -0.4586  0.0761
 5705SOL    HW118556   3.770   2.842   8.947  0.1349  0.2693 -0.3709
 5705SOL    HW218557   3.690   2.766   9.051  0.8932 -1.7778 -1.2203
 5706SOL     OW18558   6.484   7.180   7.047 -0.1637  0.3614  0.1716
 5706SOL    HW118559   6.422   7.167   6.975 -2.2209  0.5935  1.8016
 5706SOL    HW218560   6.541   7.103   7.044 -0.5899  0.0807 -1.3069
 5707SOL     OW18561   7.611   2.532   3.435  0.1825  0.2779  0.1031
 5707SOL    HW118562   7.575   2.444   3.422 -0.2003 -0.0055  2.5833
 5707SOL    HW218563   7.687   2.519   3.492  0.7218  1.4547 -0.3237
 5708SOL     OW18564   7.710   5.592  11.405 -0.6505  0.7980  0.3006
 5708SOL    HW118565   7.709   5.685  11.379 -0.4578  0.6683 -0.1913
 5708SOL    HW218566   7.788   5.557  11.362  0.3579  0.8312  2.0257
 5709SOL     OW18567   5.174   1.112   3.493 -0.3785 -0.4087 -0.3130
 5709SOL    HW118568   5.088   1.126   3.534 -0.8176  0.9865 -1.6031
 5709SOL    HW218569   5.158   1.125   3.400  1.5485  1.7191 -0.4281
 5710SOL     OW18570   0.372   1.735   5.484  0.0745 -0.4951  0.2341
 5710SOL    HW118571   0.284   1.755   5.516  0.5720  2.1620  0.2023
 5710SOL    HW218572   0.357   1.676   5.410 -1.7059  0.0321  0.1107
 5711SOL     OW18573   4.412   3.402   7.526 -0.1648 -0.1026  0.5856
 5711SOL    HW118574   4.426   3.342   7.453 -0.7198  0.1886  0.2273
 5711SOL    HW218575   4.498   3.412   7.566  0.2336  0.0697 -0.2959
 5712SOL     OW18576   0.245   4.264  10.470  0.2371  0.2556 -0.2640
 5712SOL    HW118577   0.312   4.322  10.505 -0.0782  1.0686 -0.9611
 5712SOL    HW218578   0.165   4.317  10.471 -0.4104 -0.6999  0.5598
 5713SOL     OW18579   0.636   5.085  10.988 -0.1720  0.2713 -0.2159
 5713SOL    HW118580   0.637   4.998  11.028  0.4309 -0.1077 -1.0358
 5713SOL    HW218581   0.714   5.128  11.022  0.3041 -0.0269 -0.9015
 5714SOL     OW18582   0.047   3.621   7.374 -0.0614  0.3365 -0.2006
 5714SOL    HW118583   0.051   3.614   7.279 -0.0668 -0.0190 -0.1770
 5714SOL    HW218584  -0.043   3.646   7.393 -0.3811 -0.7433 -0.2288
 5715SOL     OW18585   3.981   4.110   6.796 -0.0252  0.6480 -0.9048
 5715SOL    HW118586   3.956   4.172   6.864  0.7788  0.1030 -0.0871
 5715SOL    HW218587   4.021   4.164   6.728  1.2786  0.9852  0.0916
 5716SOL     OW18588   2.304   4.688   3.095 -0.2208 -0.1579  0.6361
 5716SOL    HW118589   2.345   4.743   3.029  0.9805 -0.0547  1.4249
 5716SOL    HW218590   2.351   4.604   3.088 -0.4049 -0.2967  1.0233
 5717SOL     OW18591   1.362   5.636   5.439 -0.1092  0.1338  0.6999
 5717SOL    HW118592   1.397   5.615   5.352  0.5207 -1.7733  1.3706
 5717SOL    HW218593   1.267   5.631   5.429 -0.0247 -0.6281  0.2360
 5718SOL     OW18594   0.747   5.685   9.009 -0.6713 -0.1474 -0.1648
 5718SOL    HW118595   0.692   5.638   8.946 -0.0923  0.3768 -1.0873
 5718SOL    HW218596   0.829   5.700   8.962 -0.1829  0.1549  0.7661
 5719SOL     OW18597   5.247   2.658   4.386 -0.4527  0.2422  0.3553
 5719SOL    HW118598   5.276   2.730   4.442 -1.0299 -0.0876  1.0970
 5719SOL    HW218599   5.252   2.580   4.441 -0.3484 -0.2058 -0.2722
 5720SOL     OW18600   1.228   3.462   3.092  0.2634 -0.4265  0.6560
 5720SOL    HW118601   1.303   3.506   3.051 -0.1062 -0.5923 -0.2111
 5720SOL    HW218602   1.164   3.453   3.022 -1.7437  2.1836  1.9706
 5721SOL     OW18603   5.498   6.979  10.058 -0.0145  0.5635  0.4299
 5721SOL    HW118604   5.518   6.959  10.149  1.6497  1.7532  0.3742
 5721SOL    HW218605   5.425   7.041  10.062  1.1327  1.9097  1.0596
 5722SOL     OW18606   1.940   1.739   1.569 -0.1050  0.2264  0.7256
 5722SOL    HW118607   1.975   1.741   1.480 -0.0982  0.6081  0.7377
 5722SOL    HW218608   1.851   1.705   1.558  0.0337 -0.1069  0.6197
 5723SOL     OW18609   4.588   1.462   6.652  0.3870  0.1428 -0.5157
 5723SOL    HW118610   4.622   1.389   6.600 -0.5009 -0.2373 -0.5874
 5723SOL    HW218611   4.653   1.531   6.643  0.3651  0.0059 -1.9674
 5724SOL     OW18612   5.439   2.401  11.213  0.8524  0.1705  0.3114
 5724SOL    HW118613   5.445   2.322  11.160  2.2547  0.3270  0.1912
 5724SOL    HW218614   5.522   2.446  11.198 -0.1018  1.9127  0.0013
 5725SOL     OW18615   5.383   7.300   4.180  0.9183  0.2455 -0.2509
 5725SOL    HW118616   5.456   7.258   4.224  0.9565 -0.4346 -0.9350
 5725SOL    HW218617   5.423   7.355   4.113  0.8022 -0.3285 -0.7979
 5726SOL     OW18618   4.321   5.106   0.895  0.3268  0.3690  0.0242
 5726SOL    HW118619   4.258   5.042   0.861  0.5816  0.0215  0.2027
 5726SOL    HW218620   4.279   5.191   0.879  0.1031  0.1753 -0.4609
 5727SOL     OW18621   7.840   0.415   7.857 -0.2649 -0.0494  0.4152
 5727SOL    HW118622   7.889   0.490   7.891  1.4930 -1.2977  0.7405
 5727SOL    HW218623   7.783   0.452   7.790  0.8038  1.5271  0.3367
 5728SOL     OW18624   6.240   7.086   8.548 -0.2919 -0.3704 -0.4989
 5728SOL    HW118625   6.209   7.029   8.477 -0.5189  0.6966 -1.2901
 5728SOL    HW218626   6.330   7.108   8.523 -0.4009  0.0750 -0.5228
 5729SOL     OW18627   0.436   6.360  10.016 -0.1151  0.4493 -0.1702
 5729SOL    HW118628   0.373   6.376   9.946 -0.4626  1.6083  0.3860
 5729SOL    HW218629   0.511   6.416   9.994  0.1803  0.0717 -0.1314
 5730SOL     OW18630   0.339   0.695   1.464 -0.1380 -0.8880 -0.2083
 5730SOL    HW118631   0.425   0.670   1.432  1.1940 -0.3387  2.6560
 5730SOL    HW218632   0.312   0.623   1.521 -0.8839 -0.3693  0.1185
 5731SOL     OW18633   1.111   3.150   9.693  0.0634 -0.1263  0.2861
 5731SOL    HW118634   1.122   3.220   9.629 -0.3085 -1.4983 -1.3412
 5731SOL    HW218635   1.027   3.169   9.734 -1.3550 -1.0242 -2.0377
 5732SOL     OW18636   6.297   1.258   9.283 -0.1060 -0.0389 -0.5994
 5732SOL    HW118637   6.273   1.294   9.368 -0.2589 -0.2753 -0.5411
 5732SOL    HW218638   6.353   1.183   9.303  1.7287  1.2138 -0.7572
 5733SOL     OW18639   3.274   0.980  10.693  0.5246  0.0065  0.0721
 5733SOL    HW118640   3.245   0.940  10.774 -3.2854 -0.6787 -1.4146
 5733SOL    HW218641   3.307   0.907  10.641 -0.5577 -0.2468 -0.3029
 5734SOL     OW18642   2.299   2.808   1.217  0.2720  0.1606  0.0544
 5734SOL    HW118643   2.343   2.772   1.140 -0.5752  0.3370 -0.5213
 5734SOL    HW218644   2.253   2.734   1.256 -2.3025  0.7192 -1.6980
 5735SOL     OW18645   5.241   0.394  11.639 -0.1303 -0.9146  0.2745
 5735SOL    HW118646   5.170   0.445  11.599  0.7553 -0.2117 -0.4498
 5735SOL    HW218647   5.218   0.389  11.731 -0.3232  0.6958  0.3353
 5736SOL     OW18648   7.030   4.055   6.759 -0.1143  0.3161  0.0935
 5736SOL    HW118649   6.994   4.032   6.673 -0.8886  0.7925  0.2822
 5736SOL    HW218650   6.956   4.091   6.807  0.1604 -0.5599  1.1999
 5737SOL     OW18651   6.815   0.978   0.422  0.4876 -0.3286  0.1518
 5737SOL    HW118652   6.720   0.975   0.434  0.5444  1.6452  1.6755
 5737SOL    HW218653   6.827   0.982   0.327 -1.0582  1.0036 -0.0373
 5738SOL     OW18654   0.445   3.534  11.884 -0.1032  0.0462 -0.1118
 5738SOL    HW118655   0.540   3.536  11.875 -0.0613 -2.7250 -1.1582
 5738SOL    HW218656   0.418   3.454  11.839 -2.9542  0.7662  0.1174
 5739SOL     OW18657   0.882   6.566  12.005 -0.2472 -0.4216 -0.5226
 5739SOL    HW118658   0.915   6.506  12.071 -1.3452 -0.6744 -0.1859
 5739SOL    HW218659   0.852   6.510  11.934 -0.5422 -0.2371 -0.5477
 5740SOL     OW18660   5.116   5.973   0.540  0.0138 -0.4143  0.1271
 5740SOL    HW118661   5.182   6.040   0.525  1.2750 -1.5011  0.6651
 5740SOL    HW218662   5.036   6.022   0.561  1.2751  0.9204  2.0658
 5741SOL     OW18663   3.397   2.345   4.323 -0.0957  0.6678  0.2500
 5741SOL    HW118664   3.466   2.305   4.271  1.0169 -0.1881  2.2940
 5741SOL    HW218665   3.421   2.438   4.328  0.7553  0.4204  0.7337
 5742SOL     OW18666   4.307   0.756   1.318 -0.0173  0.8009 -0.0496
 5742SOL    HW118667   4.319   0.682   1.258  0.5286  1.1124 -0.3351
 5742SOL    HW218668   4.215   0.753   1.342 -0.3761  1.0035 -1.3390
 5743SOL     OW18669   6.222   3.010   1.654 -0.4486 -0.2279  0.1880
 5743SOL    HW118670   6.295   3.052   1.699 -0.4471 -1.1329  1.0673
 5743SOL    HW218671   6.148   3.070   1.667 -0.4574 -0.4944  1.4533
 5744SOL     OW18672   5.840   4.563   3.868 -0.0604  0.0355 -0.5310
 5744SOL    HW118673   5.785   4.623   3.816 -0.8936  0.4199  0.7468
 5744SOL    HW218674   5.800   4.477   3.854 -2.0868  0.5234  1.6614
 5745SOL     OW18675   1.091   1.672   1.611  0.1756  1.0375 -0.1940
 5745SOL    HW118676   1.132   1.750   1.573  1.7527  0.1520 -0.4001
 5745SOL    HW218677   1.021   1.649   1.549  0.7905  1.3361 -1.0150
 5746SOL     OW18678   7.305   1.802   7.813 -0.0948 -0.3716  0.3257
 5746SOL    HW118679   7.277   1.883   7.855 -0.3632 -0.3023  0.0194
 5746SOL    HW218680   7.382   1.828   7.762 -0.2648 -0.2726  0.1132
 5747SOL     OW18681   3.474   4.049   7.526 -0.4671  0.1899  0.3780
 5747SOL    HW118682   3.544   4.111   7.546 -1.3726  1.7786 -1.1315
 5747SOL    HW218683   3.480   3.983   7.596  0.5931  1.9014  1.9926
 5748SOL     OW18684   1.322   0.911  10.928  0.0570  0.3396  0.5050
 5748SOL    HW118685   1.227   0.903  10.921  0.2534 -1.2740 -0.8740
 5748SOL    HW218686   1.341   0.894  11.020 -0.9816  0.6766  0.7916
 5749SOL     OW18687   7.649   4.312   3.921  0.2838  0.4356 -0.0804
 5749SOL    HW118688   7.627   4.376   3.988 -1.8409  1.1581 -1.3890
 5749SOL    HW218689   7.671   4.233   3.970  0.8680  1.5274  1.5000
 5750SOL     OW18690   0.596   0.332   5.221  0.7472  0.6304  0.6211
 5750SOL    HW118691   0.547   0.250   5.209  0.9888  0.3606  1.4438
 5750SOL    HW218692   0.632   0.350   5.135  0.7380 -0.1618  0.4357
 5751SOL     OW18693   6.579   2.444  10.565  0.3014  0.3589 -0.3763
 5751SOL    HW118694   6.605   2.359  10.602 -0.1273  0.4929  0.2601
 5751SOL    HW218695   6.628   2.451  10.483  1.8620  0.3935  0.5310
 5752SOL     OW18696   3.398   6.480   6.628  0.3378  0.1219  0.1524
 5752SOL    HW118697   3.431   6.558   6.674 -0.7681  0.2671  0.7510
 5752SOL    HW218698   3.407   6.502   6.535  2.0468  0.0709  0.2798
 5753SOL     OW18699   6.803   2.307  11.675  0.2455 -1.1050 -0.4458
 5753SOL    HW118700   6.751   2.227  11.682  0.0234 -0.8803  0.8315
 5753SOL    HW218701   6.812   2.323  11.581 -0.1382 -2.3417 -0.7076
 5754SOL     OW18702   3.913   0.435   4.469  0.1863 -0.2309  0.0334
 5754SOL    HW118703   3.875   0.475   4.391  0.7058  0.9057  0.3419
 5754SOL    HW218704   3.869   0.350   4.477 -4.0281  1.8156  1.6552
 5755SOL     OW18705   6.373   6.007   2.153  0.0325 -0.1679 -0.4177
 5755SOL    HW118706   6.446   6.067   2.165 -0.8851  1.0051 -0.5540
 5755SOL    HW218707   6.316   6.024   2.228 -1.4775  0.9791 -1.7690
 5756SOL     OW18708   6.506   3.307  12.022 -0.4432  0.3660  0.0607
 5756SOL    HW118709   6.412   3.291  12.024 -0.6989  1.5429 -1.0771
 5756SOL    HW218710   6.544   3.224  11.995 -1.4065  0.5846 -2.1879
 5757SOL     OW18711   5.920   3.270   8.618  0.1435  0.0561 -0.4765
 5757SOL    HW118712   5.951   3.361   8.617  0.3972 -0.0230 -0.0283
 5757SOL    HW218713   5.938   3.238   8.529 -0.7975  0.7229 -0.9199
 5758SOL     OW18714   6.493   6.973   0.876  0.6145 -0.7045  0.6276
 5758SOL    HW118715   6.568   7.032   0.864  0.4438 -0.4700  0.7089
 5758SOL    HW218716   6.483   6.966   0.971  0.7853 -1.0610  0.6222
 5759SOL     OW18717   5.917   4.087   4.931 -0.4193 -0.0166 -0.4650
 5759SOL    HW118718   5.951   4.026   4.866 -0.9915 -1.7475  0.7756
 5759SOL    HW218719   5.986   4.093   4.997 -0.9379 -0.5398  0.1509
 5760SOL     OW18720   7.311   0.842   2.720 -0.0253  0.6030  0.0424
 5760SOL    HW118721   7.302   0.821   2.813  0.5611 -2.1355 -0.4412
 5760SOL    HW218722   7.389   0.897   2.716 -0.8196  1.9165  1.2639
 5761SOL     OW18723   5.604   4.703  10.059 -0.1705  0.2296 -0.7720
 5761SOL    HW118724   5.665   4.775  10.046  0.1264  0.0896 -0.1811
 5761SOL    HW218725   5.586   4.702  10.153 -1.8304  0.8631 -1.0477
 5762SOL     OW18726   0.083   3.495   8.755 -0.1444  0.0778  0.2288
 5762SOL    HW118727   0.040   3.554   8.693 -0.0423 -0.7556 -0.6747
 5762SOL    HW218728   0.169   3.478   8.715  1.3002  2.1065  2.2303
 5763SOL     OW18729   2.133   4.946   8.851 -0.1176 -0.2566  0.0096
 5763SOL    HW118730   2.156   5.039   8.846 -0.4263 -0.2226 -0.7705
 5763SOL    HW218731   2.065   4.942   8.918  1.7009 -0.2852  1.9719
 5764SOL     OW18732   5.620   5.539   5.977 -0.2447  0.4737  0.5325
 5764SOL    HW118733   5.663   5.604   5.922  1.3845  2.1495  3.5330
 5764SOL    HW218734   5.586   5.474   5.915  2.4022  1.5777 -2.3494
 5765SOL     OW18735   1.232   2.435  10.696  0.2622 -0.4174 -0.2612
 5765SOL    HW118736   1.186   2.512  10.729 -0.1421 -1.8430  2.8185
 5765SOL    HW218737   1.322   2.465  10.681 -0.3291  1.0715 -1.0203
 5766SOL     OW18738   7.462   3.254   0.130 -0.1484  0.1549  0.2244
 5766SOL    HW118739   7.486   3.184   0.070 -0.4830  0.1434  0.0989
 5766SOL    HW218740   7.489   3.334   0.087  0.2403  0.1023  0.3704
 5767SOL     OW18741   6.311   5.643   3.056 -0.3696  0.6650 -0.0368
 5767SOL    HW118742   6.281   5.566   3.007  0.7553 -0.0471  0.3505
 5767SOL    HW218743   6.232   5.693   3.074 -1.5360 -1.7033  1.9672
 5768SOL     OW18744   6.076   3.395  10.414  0.2045  0.1199  0.7280
 5768SOL    HW118745   6.087   3.471  10.357  1.4164  0.9832  2.0421
 5768SOL    HW218746   6.042   3.431  10.496 -0.0755 -0.8798  1.0658
 5769SOL     OW18747   4.711   6.734   7.423  0.2364  0.2545 -0.0562
 5769SOL    HW118748   4.636   6.792   7.441  0.2257  0.2905 -0.2214
 5769SOL    HW218749   4.719   6.734   7.328  0.4311  0.2293 -0.0397
 5770SOL     OW18750   1.464   5.486   7.133  0.2982 -0.0860 -0.3206
 5770SOL    HW118751   1.475   5.576   7.166  0.2262 -0.0581 -0.3730
 5770SOL    HW218752   1.540   5.473   7.076  1.0723 -0.5673  0.8111
 5771SOL     OW18753   0.457   2.002  11.523  0.6202  0.5677 -0.6596
 5771SOL    HW118754   0.407   2.040  11.451  0.0543  1.9308  0.4054
 5771SOL    HW218755   0.540   2.050  11.522  2.2419 -2.0109 -2.7247
 5772SOL     OW18756   3.037   5.242   6.446  0.7015 -0.4362  0.9862
 5772SOL    HW118757   2.999   5.164   6.406 -0.7038  0.5508  0.2728
 5772SOL    HW218758   2.963   5.283   6.491  0.9408  1.3999 -0.1739
 5773SOL     OW18759   7.526   0.702  12.294  0.3026  0.0287  0.4639
 5773SOL    HW118760   7.545   0.748  12.213 -0.4415 -0.9370 -0.2750
 5773SOL    HW218761   7.578   0.622  12.290 -1.9666 -1.5039 -0.5047
 5774SOL     OW18762   7.420   5.417  10.872 -0.4872  0.0049 -0.1205
 5774SOL    HW118763   7.515   5.431  10.862  0.0304  0.0228  3.3113
 5774SOL    HW218764   7.390   5.389  10.786  2.9324 -1.4833 -1.0098
 5775SOL     OW18765   4.227   5.321   1.152  0.0915 -0.4829 -0.2672
 5775SOL    HW118766   4.308   5.364   1.178 -1.0432  1.4177  0.3051
 5775SOL    HW218767   4.212   5.350   1.062 -0.4321 -0.0300 -0.0423
 5776SOL     OW18768   4.173   7.169   3.809 -0.0345 -0.1856  0.5075
 5776SOL    HW118769   4.105   7.163   3.742  0.2859 -0.8936  0.2349
 5776SOL    HW218770   4.125   7.191   3.889 -0.7345 -1.5825  0.5143
 5777SOL     OW18771   5.275   3.827   3.987 -0.2620  0.4877  0.0265
 5777SOL    HW118772   5.249   3.813   4.078 -0.8968 -0.6566 -0.3212
 5777SOL    HW218773   5.260   3.743   3.944 -1.6182  1.4726 -1.5329
 5778SOL     OW18774   5.155   0.339   0.280 -0.1333 -0.2512 -0.2085
 5778SOL    HW118775   5.170   0.312   0.190  0.4149 -1.0707  0.1179
 5778SOL    HW218776   5.193   0.427   0.285  0.3370 -0.4258 -0.6278
 5779SOL     OW18777   0.071   6.435   8.106  0.0423 -0.0667  0.4973
 5779SOL    HW118778   0.081   6.341   8.119  0.6446  0.0181  0.6592
 5779SOL    HW218779  -0.005   6.443   8.047  1.3672 -0.7691 -1.4222
 5780SOL     OW18780   4.027   7.027   7.641  0.3198 -0.0144  0.1776
 5780SOL    HW118781   4.001   6.935   7.640 -1.5859  0.4788 -0.6454
 5780SOL    HW218782   3.947   7.074   7.666  1.4019  1.3967  1.1812
 5781SOL     OW18783   4.000   7.646   1.220 -0.1438  0.1975 -0.3649
 5781SOL    HW118784   3.948   7.711   1.268 -0.1384 -1.2864  1.7916
 5781SOL    HW218785   3.934   7.592   1.175 -0.1508  1.5908 -2.0866
 5782SOL     OW18786   3.302   3.776   2.276 -0.7374  0.2701 -0.3943
 5782SOL    HW118787   3.252   3.746   2.352 -1.3051  0.8442 -0.5371
 5782SOL    HW218788   3.258   3.738   2.201  0.1821 -0.8016 -0.4225
 5783SOL     OW18789   2.681   7.288   9.471  1.0006 -0.4012  0.0314
 5783SOL    HW118790   2.731   7.210   9.446 -0.1730 -1.0529 -0.3722
 5783SOL    HW218791   2.700   7.352   9.403  0.8556 -0.8304 -0.4157
 5784SOL     OW18792   0.370   6.654   8.853 -0.6043 -0.2393  0.3852
 5784SOL    HW118793   0.396   6.600   8.778 -0.4957 -0.2654  0.4431
 5784SOL    HW218794   0.320   6.595   8.909 -1.6991  0.0670 -0.2323
 5785SOL     OW18795   5.136   2.435  12.091  0.0345  0.4374  0.1317
 5785SOL    HW118796   5.058   2.380  12.088  0.0715  0.2942  1.4204
 5785SOL    HW218797   5.141   2.474  12.004 -0.7809 -0.5026 -0.3527
 5786SOL     OW18798   6.480   3.284   6.468  0.6048  0.2458 -0.3315
 5786SOL    HW118799   6.457   3.367   6.508 -0.3399  0.1182 -0.5675
 5786SOL    HW218800   6.465   3.219   6.537  1.0790  0.2427 -0.2303
 5787SOL     OW18801   3.026   7.838   4.125 -0.0735 -0.5111  0.3163
 5787SOL    HW118802   3.053   7.809   4.212 -1.1306 -0.0906  0.8064
 5787SOL    HW218803   3.105   7.832   4.072  0.3932 -1.5670  1.0965
 5788SOL     OW18804   3.801   7.632   3.091  0.1372 -0.3607 -0.1064
 5788SOL    HW118805   3.771   7.715   3.127  0.2843 -0.3160 -0.0876
 5788SOL    HW218806   3.730   7.603   3.035 -1.1015 -1.5127  1.9329
 5789SOL     OW18807   5.713   6.937  11.651 -0.0077  0.5108 -0.2443
 5789SOL    HW118808   5.656   6.862  11.636  0.0011  0.3736  0.3731
 5789SOL    HW218809   5.730   6.935  11.746  0.3384  1.0381 -0.2941
 5790SOL     OW18810   0.599   5.807   5.659  0.0501 -0.1437  0.3859
 5790SOL    HW118811   0.507   5.820   5.684 -0.2634  0.7676 -1.0964
 5790SOL    HW218812   0.645   5.880   5.700 -0.3035  0.7935 -0.8351
 5791SOL     OW18813   7.582   3.186   2.225  0.3938  0.7012 -0.2636
 5791SOL    HW118814   7.613   3.096   2.222  1.1297  0.9671 -1.9530
 5791SOL    HW218815   7.487   3.181   2.215  0.4690  0.1161 -0.7077
 5792SOL     OW18816   7.756   3.661   4.384 -0.4404 -0.1077 -0.6029
 5792SOL    HW118817   7.764   3.745   4.428  0.7558 -0.2058 -0.5883
 5792SOL    HW218818   7.695   3.676   4.313 -0.9760  0.5211 -0.0208
 5793SOL     OW18819   3.545   7.443  11.012 -0.0167 -0.2662  0.4238
 5793SOL    HW118820   3.595   7.395  10.946 -0.9560  0.2208 -0.6989
 5793SOL    HW218821   3.506   7.375  11.067  0.5202 -0.6974  0.2773
 5794SOL     OW18822   1.557   3.833   3.976 -0.7392  0.3774  0.5697
 5794SOL    HW118823   1.479   3.858   4.024  0.2763  1.9443  1.5024
 5794SOL    HW218824   1.625   3.825   4.043  0.4770  1.6070 -0.4439
 5795SOL     OW18825   5.042   6.119   6.085 -0.1673  0.5406 -0.1388
 5795SOL    HW118826   4.980   6.192   6.083 -1.1083 -0.2463 -1.8691
 5795SOL    HW218827   5.019   6.066   6.009  1.6231 -0.6425  0.0877
 5796SOL     OW18828   7.465   1.202   7.747  0.6272 -0.2056 -0.2355
 5796SOL    HW118829   7.420   1.118   7.737 -0.4731  0.2851  0.4475
 5796SOL    HW218830   7.547   1.180   7.790  0.4837 -0.9676 -0.3302
 5797SOL     OW18831   2.361   1.779  10.433  0.2059  0.5595  0.3237
 5797SOL    HW118832   2.300   1.852  10.425 -0.0943  0.3625  0.7560
 5797SOL    HW218833   2.405   1.774  10.348 -0.1803  0.8767  0.1048
 5798SOL     OW18834   3.077   7.649  10.168 -0.3020 -0.3913 -0.0475
 5798SOL    HW118835   3.084   7.554  10.177  0.0236 -0.4307 -0.6460
 5798SOL    HW218836   3.052   7.680  10.255 -0.2922 -1.0150  0.1794
 5799SOL     OW18837   4.051   0.193   4.748 -0.4677 -0.1228  0.0286
 5799SOL    HW118838   4.035   0.156   4.662  0.3927  0.2494 -0.3014
 5799SOL    HW218839   4.097   0.275   4.731  1.8586 -1.1575  0.8957
 5800SOL     OW18840   4.416   3.007   6.184  0.1596  0.3301  0.0351
 5800SOL    HW118841   4.497   3.053   6.208 -1.0352  1.7268  1.6163
 5800SOL    HW218842   4.401   3.031   6.093  1.6097 -0.1409 -0.3628
 5801SOL     OW18843   5.261   7.828   8.411  0.0636 -0.0509  0.0522
 5801SOL    HW118844   5.279   7.839   8.317 -3.5791  2.4783 -0.5529
 5801SOL    HW218845   5.227   7.739   8.418  0.5475 -0.3422 -0.9930
 5802SOL     OW18846   5.103   3.855  10.823  0.2500 -0.6803 -0.0800
 5802SOL    HW118847   5.151   3.773  10.835  1.4644  0.0436  0.0985
 5802SOL    HW218848   5.166   3.915  10.785 -0.6703  0.1448 -0.3448
 5803SOL     OW18849   0.654   3.207  12.246 -0.3242  0.8997  0.1848
 5803SOL    HW118850   0.602   3.240  12.172  0.8854  1.2187 -0.5405
 5803SOL    HW218851   0.731   3.263  12.248  1.3428 -1.2134 -0.4824
 5804SOL     OW18852   5.860   0.676   2.283  0.1481 -0.4612 -0.2630
 5804SOL    HW118853   5.896   0.761   2.308 -2.1904  0.7066 -0.6054
 5804SOL    HW218854   5.937   0.625   2.255  1.6848  1.2926  0.5340
 5805SOL     OW18855   1.464   7.324   8.786  0.0896  0.0835  0.1517
 5805SOL    HW118856   1.553   7.359   8.799  0.1725  0.0687 -0.3565
 5805SOL    HW218857   1.422   7.388   8.729 -0.3455  0.2655  0.6641
 5806SOL     OW18858   3.999   2.805   5.415 -0.6435  0.9588  0.1972
 5806SOL    HW118859   3.988   2.897   5.394 -1.2608  0.3718 -2.4159
 5806SOL    HW218860   3.934   2.760   5.361  0.1023 -1.0477  0.8846
 5807SOL     OW18861   5.134   3.743  10.187  0.1511  0.0449  0.1982
 5807SOL    HW118862   5.155   3.797  10.263  0.3813 -0.0394  0.1931
 5807SOL    HW218863   5.058   3.691  10.215 -0.8575  1.2396 -0.1873
 5808SOL     OW18864   7.497   6.620   9.041  0.3747 -0.3551  0.1176
 5808SOL    HW118865   7.504   6.699   8.987  1.2280 -0.2043  0.4286
 5808SOL    HW218866   7.478   6.653   9.129  1.3047 -0.4426  0.3675
 5809SOL     OW18867   6.985   4.340   2.033 -0.1106 -0.1233  0.1902
 5809SOL    HW118868   7.048   4.300   2.093 -1.5003 -0.1857  1.6917
 5809SOL    HW218869   7.016   4.316   1.946  1.2106 -1.2305  0.9159
 5810SOL     OW18870   1.835   0.333   6.744  0.2128 -0.0181 -0.1610
 5810SOL    HW118871   1.769   0.304   6.807 -0.5784  1.9842  0.0229
 5810SOL    HW218872   1.833   0.267   6.675 -0.6599 -0.9731  0.7523
 5811SOL     OW18873   4.749   3.912   5.947  0.4804  0.0993  0.2249
 5811SOL    HW118874   4.795   3.909   6.030 -0.5999  0.8291  0.8707
 5811SOL    HW218875   4.759   3.824   5.910  0.7067 -0.3165  1.2672
 5812SOL     OW18876   2.948   0.102   7.040  0.2081  0.3620 -0.2786
 5812SOL    HW118877   2.941   0.074   6.949  1.6049 -0.4177 -0.1793
 5812SOL    HW218878   2.944   0.021   7.092  0.5779  0.6819  0.2681
 5813SOL     OW18879   7.900   1.625   6.501  0.9190 -0.1291 -0.1608
 5813SOL    HW118880   7.928   1.706   6.543  2.7078  0.0609 -1.5821
 5813SOL    HW218881   7.815   1.645   6.462  0.1375  0.2509  1.6707
 5814SOL     OW18882   5.731   1.697   9.704 -0.2447  0.2945  0.1024
 5814SOL    HW118883   5.789   1.756   9.655  0.8887 -0.2223  0.8050
 5814SOL    HW218884   5.778   1.615   9.710 -1.4474 -0.4354 -0.1007
 5815SOL     OW18885   1.800   2.140   4.907 -0.5149  0.0417 -0.1133
 5815SOL    HW118886   1.860   2.200   4.862  0.3914 -0.5500  0.2690
 5815SOL    HW218887   1.774   2.077   4.839  0.1361 -0.3135 -0.0453
 5816SOL     OW18888   4.991   2.664   7.695  0.3499  0.2367  0.1326
 5816SOL    HW118889   4.914   2.608   7.702 -0.0827  0.9231  1.0933
 5816SOL    HW218890   5.003   2.676   7.601 -1.0293  0.5208 -0.0388
 5817SOL     OW18891   4.194   2.528  10.641 -0.2250  0.1962  0.6359
 5817SOL    HW118892   4.107   2.488  10.635  1.0255 -2.7396 -0.2556
 5817SOL    HW218893   4.212   2.559  10.552  0.5044 -1.4222  0.1756
 5818SOL     OW18894   5.444   3.427   6.262 -0.1669  0.3702  0.4553
 5818SOL    HW118895   5.424   3.348   6.313 -0.0877 -0.8212 -1.2772
 5818SOL    HW218896   5.539   3.437   6.271 -0.4894  1.9963  3.0072
 5819SOL     OW18897   4.621   7.354   2.346 -0.1224  0.4350 -0.7725
 5819SOL    HW118898   4.584   7.282   2.296  0.2253  0.4478 -1.0531
 5819SOL    HW218899   4.715   7.352   2.325  0.1920 -0.1628  0.6403
 5820SOL     OW18900   4.128   2.072  12.316  0.1413 -0.3832 -0.1076
 5820SOL    HW118901   4.037   2.095  12.334 -0.3074 -1.1859 -1.2069
 5820SOL    HW218902   4.138   2.085  12.222  0.7911 -1.4891 -0.2120
 5821SOL     OW18903   5.788   7.047   5.261  0.2151  0.1930  0.1713
 5821SOL    HW118904   5.812   6.984   5.193  2.8560  0.1539  1.0335
 5821SOL    HW218905   5.693   7.059   5.250  0.1480 -1.6074 -1.9412
 5822SOL     OW18906   2.687   3.469   7.412  0.0420  0.0900 -0.4521
 5822SOL    HW118907   2.745   3.497   7.483 -0.5830  0.7678 -0.2009
 5822SOL    HW218908   2.616   3.421   7.456  1.0781 -1.9662 -0.8661
 5823SOL     OW18909   6.061   1.906   8.068 -0.6326  0.3955  0.3254
 5823SOL    HW118910   6.015   1.916   8.152 -0.9864  1.3829  0.0304
 5823SOL    HW218911   6.142   1.860   8.091 -0.0547  1.8984  1.4656
 5824SOL     OW18912   0.709   1.718   4.032 -0.3644  0.3422 -0.1542
 5824SOL    HW118913   0.625   1.681   4.058 -0.6534  2.0334  1.5599
 5824SOL    HW218914   0.712   1.707   3.937 -2.1434 -0.4774 -0.1480
 5825SOL     OW18915   3.691   1.506   1.747 -0.3262  0.0614 -0.2806
 5825SOL    HW118916   3.628   1.434   1.745 -0.6110  0.2237  1.4874
 5825SOL    HW218917   3.675   1.553   1.665 -0.7865 -1.3189 -1.0229
 5826SOL     OW18918   0.924   6.084   1.953 -0.0850 -0.3213 -0.4205
 5826SOL    HW118919   0.982   6.153   1.985  0.3628 -0.6244 -0.5690
 5826SOL    HW218920   0.907   6.108   1.862  1.9621 -1.6109 -1.2158
 5827SOL     OW18921   7.856   1.806   4.882  0.2762  0.5012 -0.6667
 5827SOL    HW118922   7.797   1.821   4.956 -2.5531 -1.8939 -2.2591
 5827SOL    HW218923   7.835   1.875   4.820  0.4838  0.7311 -0.4834
 5828SOL     OW18924   2.521   1.947   7.654 -0.7142 -0.1083  0.1791
 5828SOL    HW118925   2.547   1.935   7.563 -0.7815 -0.2966  0.1853
 5828SOL    HW218926   2.482   1.864   7.680 -1.3683  0.1874  0.1546
 5829SOL     OW18927   3.117   0.326   1.130 -0.0927 -0.0426  0.3121
 5829SOL    HW118928   3.149   0.372   1.052  0.8530 -1.4270 -0.1778
 5829SOL    HW218929   3.023   0.319   1.116 -0.0555  0.5097 -0.2811
 5830SOL     OW18930   4.668   0.577   0.137  0.5782 -0.6331 -0.6449
 5830SOL    HW118931   4.727   0.547   0.068  2.5926 -0.7073  1.0202
 5830SOL    HW218932   4.718   0.643   0.185 -0.6782 -0.7130  0.8675
 5831SOL     OW18933   2.591   4.460   5.595 -0.0286  0.3673 -0.5754
 5831SOL    HW118934   2.627   4.379   5.631  0.8263  1.1613  0.4313
 5831SOL    HW218935   2.662   4.523   5.605 -0.4417  1.0918 -1.9606
 5832SOL     OW18936   3.409   1.357   8.237  0.3819 -0.1032  0.1026
 5832SOL    HW118937   3.407   1.445   8.274  0.2323  0.7515 -1.8535
 5832SOL    HW218938   3.324   1.319   8.259  0.1188  0.5554  0.2176
 5833SOL     OW18939   5.451   5.537   7.121 -0.0565 -0.0971  0.2107
 5833SOL    HW118940   5.513   5.600   7.084 -0.8665  1.0127  0.6671
 5833SOL    HW218941   5.411   5.496   7.044 -1.8114  2.2818 -0.2793
 5834SOL     OW18942   7.104   6.740   9.506 -0.3176  0.4021 -0.7358
 5834SOL    HW118943   7.116   6.650   9.537  1.2054  0.1968 -1.8079
 5834SOL    HW218944   7.114   6.794   9.584 -0.1205 -0.3017 -0.2698
 5835SOL     OW18945   3.619   7.511   0.868 -0.0250 -0.0220 -0.2064
 5835SOL    HW118946   3.548   7.542   0.924  0.0459 -0.2875  0.0354
 5835SOL    HW218947   3.664   7.590   0.839 -1.3213  0.2557 -1.5803
 5836SOL     OW18948   2.812   3.062   6.633 -0.1049 -0.2769  0.5784
 5836SOL    HW118949   2.883   3.061   6.696 -0.5338 -0.2168  1.0698
 5836SOL    HW218950   2.732   3.062   6.686 -0.4688  0.1829  0.0461
 5837SOL     OW18951   0.051   1.017   9.757 -0.1564  0.4473 -0.1157
 5837SOL    HW118952   0.137   0.976   9.746 -0.5870 -0.4543 -0.2172
 5837SOL    HW218953  -0.000   0.985   9.683  0.0713  2.7864 -1.3863
 5838SOL     OW18954   0.042   4.475   1.780 -0.2363  0.2903 -0.2214
 5838SOL    HW118955   0.074   4.442   1.696 -0.4095 -0.8678  0.1496
 5838SOL    HW218956   0.018   4.397   1.829 -0.3989  0.9634  0.8109
 5839SOL     OW18957   7.865   5.267   8.093  0.5824 -0.5415  0.1195
 5839SOL    HW118958   7.798   5.336   8.094 -0.1184 -1.1884 -1.0513
 5839SOL    HW218959   7.944   5.312   8.064  0.4078  0.0109  0.4846
 5840SOL     OW18960   6.246   3.382   0.345  0.0775 -0.7638  0.8661
 5840SOL    HW118961   6.204   3.341   0.270  0.5554  0.1650  0.0592
 5840SOL    HW218962   6.264   3.310   0.405 -3.2213 -1.1656  1.5837
 5841SOL     OW18963   1.637   0.317   8.084  0.0314 -0.1924 -0.0232
 5841SOL    HW118964   1.635   0.399   8.134  1.4450 -1.1789  1.7522
 5841SOL    HW218965   1.636   0.248   8.150 -1.2455 -1.6490 -1.4829
 5842SOL     OW18966   5.676   7.035   0.146 -0.3598  0.2342 -0.2457
 5842SOL    HW118967   5.634   6.976   0.209  1.4315 -1.1077 -0.2222
 5842SOL    HW218968   5.604   7.066   0.091 -1.5987 -0.6318  0.8122
 5843SOL     OW18969   2.625   6.363   7.364  0.4066 -0.0397 -0.2113
 5843SOL    HW118970   2.532   6.371   7.346  0.6490 -0.8892 -2.0383
 5843SOL    HW218971   2.632   6.289   7.424 -0.1351  0.3859  0.3838
 5844SOL     OW18972   7.642   4.787   6.921  0.2256  0.1417  0.1000
 5844SOL    HW118973   7.718   4.730   6.933  0.6929  0.7213 -0.0514
 5844SOL    HW218974   7.652   4.822   6.832 -0.8155 -0.6387 -0.3321
 5845SOL     OW18975   4.468   2.238  11.231  0.1727  0.0560  0.0975
 5845SOL    HW118976   4.386   2.189  11.224  0.2481 -0.1898  0.8154
 5845SOL    HW218977   4.467   2.274  11.320  0.4580  0.7580 -0.1738
 5846SOL     OW18978   7.090   2.537  12.150 -0.2355 -0.1803  0.1202
 5846SOL    HW118979   7.032   2.528  12.226  0.4972  1.6893  0.9684
 5846SOL    HW218980   7.103   2.631  12.140  1.9573 -0.4880 -0.5488
 5847SOL     OW18981   7.578   4.917  10.882  0.0123  0.4928 -0.5027
 5847SOL    HW118982   7.595   4.935  10.789  0.3913  0.8949 -0.3594
 5847SOL    HW218983   7.502   4.972  10.903 -0.4175 -0.0159 -0.7113
 5848SOL     OW18984   2.349   4.245   8.959  0.9247  0.4633  0.4059
 5848SOL    HW118985   2.364   4.179   9.026 -0.0673 -0.5587 -0.3410
 5848SOL    HW218986   2.434   4.286   8.945  1.4005 -0.1740  1.3833
 5849SOL     OW18987   7.643   7.509  11.950 -0.3614 -0.0039 -0.8197
 5849SOL    HW118988   7.643   7.582  11.889  1.4912  0.9659  0.2558
 5849SOL    HW218989   7.721   7.459  11.928 -1.0691 -1.1102 -0.8903
 5850SOL     OW18990   0.417   7.404   5.620 -0.4648  0.4713 -0.4674
 5850SOL    HW118991   0.365   7.470   5.667 -0.8983 -0.7387  0.8138
 5850SOL    HW218992   0.501   7.447   5.605 -0.9957  1.5921 -0.3522
 5851SOL     OW18993   3.947   7.160   3.989  1.1562  0.1518 -0.2151
 5851SOL    HW118994   3.884   7.226   4.019  0.9355 -0.3982  0.5476
 5851SOL    HW218995   3.894   7.085   3.964  1.4919 -0.3208  0.4435
 5852SOL     OW18996   3.481   4.082   9.908 -0.4573 -0.3409 -0.0713
 5852SOL    HW118997   3.566   4.122   9.889 -1.4294  1.0947 -1.7036
 5852SOL    HW218998   3.421   4.122   9.845 -2.1955 -1.9309  0.4786
 5853SOL     OW18999   0.101   0.442   4.330  0.0311 -0.5184 -0.2412
 5853SOL    HW119000   0.118   0.366   4.276  0.2696 -1.2983  0.8948
 5853SOL    HW219001   0.187   0.476   4.352 -0.0216 -0.8473  0.5121
 5854SOL     OW19002   4.091   0.458   1.455  0.4386 -0.1669  0.5272
 5854SOL    HW119003   4.075   0.546   1.421 -1.2685 -0.1469  1.2583
 5854SOL    HW219004   4.158   0.470   1.522  0.4620  0.5241  0.3850
 5855SOL     OW19005   6.251   0.593   4.357  0.1621 -0.2036 -0.0332
 5855SOL    HW119006   6.273   0.510   4.314 -0.4918 -0.0950 -0.6049
 5855SOL    HW219007   6.335   0.632   4.380  0.5029 -0.6250 -0.5511
 5856SOL     OW19008   7.794   6.893   5.056 -0.2338  0.4164  0.3409
 5856SOL    HW119009   7.771   6.800   5.060 -1.2135  0.5716 -0.9737
 5856SOL    HW219010   7.843   6.901   4.974  0.3799  0.9656  0.7540
 5857SOL     OW19011   4.347   5.973  11.449 -0.0159  0.0506 -0.8923
 5857SOL    HW119012   4.272   5.932  11.405 -1.1268 -1.3208  2.0025
 5857SOL    HW219013   4.415   5.906  11.447  0.2623  0.3518 -1.3844
 5858SOL     OW19014   6.333   6.892   1.294  0.3313 -0.5852 -0.2441
 5858SOL    HW119015   6.300   6.975   1.260 -0.1152 -1.0485 -0.9721
 5858SOL    HW219016   6.348   6.908   1.387  0.5033  0.3817 -0.4280
 5859SOL     OW19017   4.494   1.375   0.534 -0.0529  0.3006  0.1761
 5859SOL    HW119018   4.560   1.323   0.488 -1.2826 -0.3079 -0.9620
 5859SOL    HW219019   4.427   1.312   0.559 -0.5366  1.0090  0.7044
 5860SOL     OW19020   0.339   7.382   1.996 -0.1370  0.3539 -0.0652
 5860SOL    HW119021   0.364   7.379   1.903  3.3792  2.6529  0.5811
 5860SOL    HW219022   0.333   7.476   2.015 -0.4730 -0.0681  2.1144
 5861SOL     OW19023   6.854   5.770   9.710 -0.1444 -0.0294 -0.4311
 5861SOL    HW119024   6.814   5.843   9.756 -1.7727 -0.8577 -0.4387
 5861SOL    HW219025   6.928   5.744   9.765 -0.2305  0.8931  0.1429
 5862SOL     OW19026   2.283   5.389  10.610  0.2151 -0.3398  0.3698
 5862SOL    HW119027   2.246   5.477  10.619 -0.6256 -0.7178  0.6357
 5862SOL    HW219028   2.278   5.371  10.516 -0.7950 -0.6015  0.4647
 5863SOL     OW19029   5.395   4.050   7.596  0.0018 -0.1304 -0.3385
 5863SOL    HW119030   5.480   4.093   7.591 -0.0180 -0.0914 -0.3381
 5863SOL    HW219031   5.342   4.093   7.529 -0.8456  1.6755  1.3837
 5864SOL     OW19032   3.837   7.583   8.100 -0.3638 -0.0677  0.5266
 5864SOL    HW119033   3.806   7.536   8.177  0.4003 -2.5816 -0.6109
 5864SOL    HW219034   3.763   7.583   8.039  0.3518 -2.0919 -0.4294
 5865SOL     OW19035   1.219   0.428   4.146  0.1612 -0.5065  0.4281
 5865SOL    HW119036   1.257   0.340   4.142  1.5984  0.1348 -0.7704
 5865SOL    HW219037   1.291   0.487   4.125 -0.7678  0.9860  1.2234
 5866SOL     OW19038   1.737   2.833   2.387  0.2802  0.5620  0.3618
 5866SOL    HW119039   1.692   2.777   2.450  0.8327 -1.6445 -1.0697
 5866SOL    HW219040   1.810   2.779   2.356  2.9238  3.3115  1.2881
 5867SOL     OW19041   4.673   2.610   1.196 -0.0337  0.2316  0.3420
 5867SOL    HW119042   4.599   2.575   1.246 -0.9023 -0.4308 -1.3446
 5867SOL    HW219043   4.638   2.687   1.151  1.4375  2.4479  2.7123
 5868SOL     OW19044   7.039   6.356   2.462 -0.1275  0.1071  0.0168
 5868SOL    HW119045   7.038   6.282   2.401 -2.0196  0.0647  0.0427
 5868SOL    HW219046   7.065   6.317   2.546 -2.5492 -0.9002  0.3811
 5869SOL     OW19047   1.047   0.355   9.713  0.2490 -1.0036  0.3811
 5869SOL    HW119048   1.138   0.345   9.684 -0.2132 -1.3253 -1.0315
 5869SOL    HW219049   0.995   0.335   9.636 -0.9840  3.3684 -0.1765
 5870SOL     OW19050   2.406   4.066   9.152 -0.0626  0.0187 -0.7250
 5870SOL    HW119051   2.477   4.002   9.143  2.3358  2.0021  2.3641
 5870SOL    HW219052   2.344   4.024   9.213  0.0117 -0.4620 -0.9709
 5871SOL     OW19053   3.664   5.564   6.311 -0.1412  0.3638  0.3397
 5871SOL    HW119054   3.666   5.503   6.385 -0.5912  0.7891  0.7162
 5871SOL    HW219055   3.737   5.624   6.328 -0.8183  1.0446  0.9724
 5872SOL     OW19056   3.049   0.210  10.002 -0.1858 -0.0096 -0.2767
 5872SOL    HW119057   3.087   0.122   9.996  0.4275  0.2120  0.1535
 5872SOL    HW219058   3.052   0.244   9.913  2.5229  0.7496  0.0114
 5873SOL     OW19059   3.017   3.971   2.359 -0.5114  0.0775  0.5516
 5873SOL    HW119060   3.051   4.059   2.342  0.4595  0.1315  2.4696
 5873SOL    HW219061   3.003   3.933   2.272  0.0049  1.7523 -0.3054
 5874SOL     OW19062   3.605   6.207   6.455  0.3300  0.3381 -0.1932
 5874SOL    HW119063   3.679   6.171   6.407  1.2223 -0.5087  1.7160
 5874SOL    HW219064   3.532   6.148   6.435  0.6115  0.1567 -0.6942
 5875SOL     OW19065   0.427   2.913   8.581  0.2421 -0.3510 -0.1497
 5875SOL    HW119066   0.431   2.946   8.491  0.6761  0.1205  0.0383
 5875SOL    HW219067   0.383   2.828   8.573 -2.1862  0.8628 -0.4501
 5876SOL     OW19068   7.554   3.018   5.907  0.0498  0.2811 -0.3922
 5876SOL    HW119069   7.631   2.964   5.922  1.2773  2.1558  0.4199
 5876SOL    HW219070   7.560   3.042   5.814 -0.3206 -0.6431 -0.6710
 5877SOL     OW19071   1.117   0.724   5.712  0.3602 -0.0150 -0.2241
 5877SOL    HW119072   1.181   0.670   5.666  0.5986 -0.2918  0.4243
 5877SOL    HW219073   1.168   0.774   5.775 -0.0152  0.0555  0.0280
 5878SOL     OW19074   0.433   2.717   9.622 -0.0883 -0.0419  0.0132
 5878SOL    HW119075   0.462   2.628   9.642 -0.2163  0.5376  3.2492
 5878SOL    HW219076   0.507   2.772   9.648 -0.2801  0.8905 -1.2985
 5879SOL     OW19077   3.469   5.547   5.715  0.3376 -0.5742  0.0578
 5879SOL    HW119078   3.542   5.595   5.674  0.2758 -0.7148 -0.2182
 5879SOL    HW219079   3.476   5.459   5.679  1.0692 -1.0660  1.3295
 5880SOL     OW19080   6.566   7.547  10.201  0.9472  0.8914 -0.3320
 5880SOL    HW119081   6.616   7.525  10.122 -0.0559  0.1391 -0.7747
 5880SOL    HW219082   6.633   7.551  10.270  1.4941 -1.6781 -0.5952
 5881SOL     OW19083   1.768   1.310   9.946 -0.3685  0.2874  0.7984
 5881SOL    HW119084   1.677   1.293   9.921 -0.4645  0.5130  0.9989
 5881SOL    HW219085   1.793   1.235  10.000 -0.9844  1.0498  2.1880
 5882SOL     OW19086   0.534   5.598   7.902 -0.0293  0.1710  0.4142
 5882SOL    HW119087   0.527   5.562   7.814 -1.1895  1.7656 -0.1848
 5882SOL    HW219088   0.481   5.540   7.956 -0.8115  0.2056 -0.2954
 5883SOL     OW19089   7.787   5.258   8.346  0.3751 -0.2090 -0.4620
 5883SOL    HW119090   7.846   5.330   8.367  3.8636 -3.1253  0.6367
 5883SOL    HW219091   7.802   5.242   8.252 -0.8724  0.7742 -0.8618
 5884SOL     OW19092   2.108   7.203   4.661  0.3255  0.1141  0.0212
 5884SOL    HW119093   2.022   7.162   4.657  0.1159  0.5210  0.3861
 5884SOL    HW219094   2.166   7.140   4.616  0.3424 -1.4571  2.0650
 5885SOL     OW19095   6.293   7.475  10.202  0.1320  0.7535 -0.1904
 5885SOL    HW119096   6.289   7.485  10.107  0.1369 -1.0849 -0.4211
 5885SOL    HW219097   6.374   7.520  10.228  0.9399 -0.0185 -1.2719
 5886SOL     OW19098   6.231   1.423   0.534  0.0155  0.6547 -0.3559
 5886SOL    HW119099   6.274   1.345   0.498  1.8270  1.0374  0.8513
 5886SOL    HW219100   6.287   1.450   0.608 -2.3387  1.1697  1.3710
 5887SOL     OW19101   5.434   2.789   2.468  0.3445  0.6501 -0.7732
 5887SOL    HW119102   5.480   2.822   2.392 -0.1554  2.2486 -0.4161
 5887SOL    HW219103   5.424   2.865   2.526 -0.0833 -0.3167  0.4802
 5888SOL     OW19104   4.128   7.535   3.577 -0.0938  0.0186 -0.0146
 5888SOL    HW119105   4.146   7.627   3.556 -0.6888 -0.1898 -1.5736
 5888SOL    HW219106   4.099   7.536   3.668 -0.4807  1.4363 -0.1295
 5889SOL     OW19107   5.884   3.182   7.219  0.6307 -0.6475  0.1869
 5889SOL    HW119108   5.874   3.229   7.302  0.7224 -1.2234  0.5293
 5889SOL    HW219109   5.809   3.123   7.216  0.5563 -0.5321 -0.2063
 5890SOL     OW19110   1.125   6.191   9.717 -0.2616  0.1419 -0.0410
 5890SOL    HW119111   1.195   6.161   9.775 -1.3574 -1.8763  0.3309
 5890SOL    HW219112   1.116   6.284   9.735  2.6377  0.5912 -0.4679
 5891SOL     OW19113   1.687   0.866  11.456 -0.1392  0.1127 -0.0080
 5891SOL    HW119114   1.770   0.828  11.486  0.4971  1.0861 -0.5124
 5891SOL    HW219115   1.710   0.919  11.380 -1.5472 -1.3210 -1.5169
 5892SOL     OW19116   0.199   3.697   8.356  0.4449 -0.2348  0.2878
 5892SOL    HW119117   0.157   3.782   8.371  2.3301  0.5410  1.6509
 5892SOL    HW219118   0.127   3.636   8.340 -1.2130  0.9537  2.7064
 5893SOL     OW19119   1.794   4.644   9.639  0.8998  0.1797  0.4286
 5893SOL    HW119120   1.810   4.635   9.733  0.0514  1.1123  0.6837
 5893SOL    HW219121   1.749   4.728   9.630  1.5653  0.4212 -0.8958
 5894SOL     OW19122   7.578   7.393   3.845  0.4105 -0.0002  0.1320
 5894SOL    HW119123   7.597   7.306   3.810 -1.2913 -1.2437  2.0424
 5894SOL    HW219124   7.563   7.378   3.938 -2.9818  1.7703  0.0175
 5895SOL     OW19125   0.371   3.408   2.550 -0.5834  0.3491 -0.1007
 5895SOL    HW119126   0.319   3.486   2.529 -0.2977  0.0281 -2.1740
 5895SOL    HW219127   0.426   3.395   2.474  3.5875  1.3879  2.3988
 5896SOL     OW19128   3.214   4.944   0.096 -0.0355  0.0593  0.4896
 5896SOL    HW119129   3.202   4.985   0.010  1.2113 -0.8668 -0.1717
 5896SOL    HW219130   3.194   4.851   0.080  2.6408 -0.6166  0.5137
 5897SOL     OW19131   4.807   0.460   7.967  0.0076 -0.4611  0.2086
 5897SOL    HW119132   4.822   0.541   8.016 -0.9626  0.7099 -1.3545
 5897SOL    HW219133   4.789   0.488   7.878  0.5048 -2.4658 -0.5878
 5898SOL     OW19134   5.428   1.360  12.129 -0.0500 -0.0138  0.2878
 5898SOL    HW119135   5.519   1.339  12.110 -0.5759 -0.3818 -2.2601
 5898SOL    HW219136   5.431   1.443  12.176  1.6161 -0.4654  1.0181
 5899SOL     OW19137   2.511   2.880   6.466  0.2526 -0.6661  0.2685
 5899SOL    HW119138   2.561   2.959   6.445  0.2828 -0.6878  0.2577
 5899SOL    HW219139   2.490   2.842   6.380 -0.3473 -0.3111  0.2538
 5900SOL     OW19140   0.906   5.822   1.846  0.1113 -0.0492 -0.3358
 5900SOL    HW119141   0.939   5.897   1.896  1.4860 -1.2648  0.6838
 5900SOL    HW219142   0.976   5.802   1.783 -0.7029  0.1695 -1.3236
 5901SOL     OW19143   1.049   2.147   3.893  0.1296  0.3517  0.1442
 5901SOL    HW119144   1.017   2.061   3.919  0.1377  0.2112 -0.2878
 5901SOL    HW219145   1.066   2.138   3.799  0.9415  0.5689  0.2618
 5902SOL     OW19146   5.651   1.816  10.557  0.1088 -0.0437  0.0788
 5902SOL    HW119147   5.621   1.725  10.559 -0.5593  0.1693 -0.1200
 5902SOL    HW219148   5.744   1.811  10.580  0.5663 -0.9655 -1.7593
 5903SOL     OW19149   1.748   5.223   2.690  0.3608  0.9265  0.0671
 5903SOL    HW119150   1.664   5.266   2.707 -0.9033 -1.0564 -0.7779
 5903SOL    HW219151   1.805   5.252   2.761 -1.5220  1.1091  1.5717
 5904SOL     OW19152   1.252   3.793  11.859  0.2872 -0.0039  0.1403
 5904SOL    HW119153   1.294   3.742  11.790  0.1608  0.7863 -0.5410
 5904SOL    HW219154   1.287   3.758  11.941  1.2671 -0.2362 -0.3686
 5905SOL     OW19155   0.953   5.668   8.811  0.4626  0.1824 -0.1363
 5905SOL    HW119156   0.903   5.599   8.767 -1.1611  1.5678 -0.5736
 5905SOL    HW219157   1.012   5.701   8.743  1.2621 -0.7651  0.0821
 5906SOL     OW19158   0.848   2.460   8.338  0.2100  0.0100  0.2839
 5906SOL    HW119159   0.778   2.453   8.404  2.7906 -0.8095  3.1552
 5906SOL    HW219160   0.851   2.554   8.317 -0.8803  0.2518  1.1078
 5907SOL     OW19161   0.655   4.741   7.463  0.3385 -0.4635 -0.6900
 5907SOL    HW119162   0.607   4.766   7.542  0.4710  0.4634 -0.8947
 5907SOL    HW219163   0.727   4.686   7.496  1.5254  1.4527  0.0756
 5908SOL     OW19164   5.073   7.156   5.423 -0.2515  0.4119 -0.5431
 5908SOL    HW119165   5.005   7.173   5.488  0.5183  0.6705  0.2025
 5908SOL    HW219166   5.026   7.157   5.339 -0.8882  2.3263 -0.2124
 5909SOL     OW19167   0.484   0.356   2.439  0.1313 -0.1957  0.1169
 5909SOL    HW119168   0.537   0.426   2.401 -2.5764  1.2659 -1.2795
 5909SOL    HW219169   0.541   0.279   2.436  2.3223  1.3384 -0.7654
 5910SOL     OW19170   7.869   5.892   6.825  0.4597 -0.6910  0.6652
 5910SOL    HW119171   7.868   5.987   6.830  2.3152 -0.5408 -0.7277
 5910SOL    HW219172   7.777   5.867   6.814  0.0640  1.0419 -0.2522
 5911SOL     OW19173   7.521   4.490   5.773  0.7447  0.0226  0.2097
 5911SOL    HW119174   7.481   4.410   5.737  0.5411  1.0954 -2.1482
 5911SOL    HW219175   7.604   4.460   5.811 -1.2614 -1.9366  3.4310
 5912SOL     OW19176   0.179   4.674  10.958 -0.3916  0.5481 -0.1184
 5912SOL    HW119177   0.272   4.658  10.942 -0.6836 -1.5692 -0.0276
 5912SOL    HW219178   0.140   4.678  10.871 -0.0448  3.0287 -0.2217
 5913SOL     OW19179   6.775   2.369   5.294 -0.3334 -0.4069  0.2823
 5913SOL    HW119180   6.860   2.401   5.323  0.1144 -2.0420  0.8625
 5913SOL    HW219181   6.779   2.374   5.198  0.2150  0.0137  0.3232
 5914SOL     OW19182   3.550   1.510  11.590 -0.1324 -0.0567 -0.3667
 5914SOL    HW119183   3.486   1.561  11.640  1.2784  0.9440  0.5192
 5914SOL    HW219184   3.599   1.462  11.657  2.2701  1.8547 -0.6134
 5915SOL     OW19185   1.346   1.805   8.150 -0.1084  0.4333 -0.2387
 5915SOL    HW119186   1.417   1.855   8.109 -0.0896 -0.4970 -1.3986
 5915SOL    HW219187   1.273   1.866   8.156 -0.0774  0.6285 -1.5894
 5916SOL     OW19188   7.152   6.056  11.862 -0.5283  0.5118 -0.0408
 5916SOL    HW119189   7.205   6.107  11.801 -1.5019 -0.6049 -1.9011
 5916SOL    HW219190   7.075   6.110  11.877 -1.7546 -0.4689 -2.3348
 5917SOL     OW19191   3.210   3.513   1.313  0.2338  0.9310 -1.1634
 5917SOL    HW119192   3.208   3.568   1.391 -2.3554  0.2568 -0.6714
 5917SOL    HW219193   3.136   3.544   1.260  1.3558  0.7366 -2.9416
 5918SOL     OW19194   5.521   2.954   1.951  0.1454 -0.9227 -0.6352
 5918SOL    HW119195   5.452   2.972   2.016  1.4782  0.8157  0.4031
 5918SOL    HW219196   5.570   2.881   1.988  0.4523 -0.4202 -0.0345
 5919SOL     OW19197   5.025   2.315   5.584 -0.3342  0.8502 -0.2234
 5919SOL    HW119198   4.966   2.381   5.548  0.0297  1.4990  0.3334
 5919SOL    HW219199   5.004   2.235   5.536 -2.6459  0.6966  0.9114
 5920SOL     OW19200   7.467   4.160   9.998 -0.1665  0.1307  0.5756
 5920SOL    HW119201   7.443   4.129  10.085 -1.5275 -0.1339  0.1276
 5920SOL    HW219202   7.484   4.081   9.947  2.8288  0.2847  1.1099
 5921SOL     OW19203   5.670   4.218   3.254 -0.0874 -0.1517  0.1878
 5921SOL    HW119204   5.642   4.132   3.286  1.3860 -0.5288  0.5873
 5921SOL    HW219205   5.755   4.201   3.213  0.7973  1.2821  1.3288
 5922SOL     OW19206   2.297   1.192   3.005  0.4015 -0.2451  0.5525
 5922SOL    HW119207   2.380   1.239   2.993  0.4090 -0.1735  0.8782
 5922SOL    HW219208   2.233   1.260   3.026 -0.2066 -0.0286 -1.7195
 5923SOL     OW19209   5.535   5.471   3.444  0.4031 -0.2947 -0.2610
 5923SOL    HW119210   5.588   5.507   3.373  2.4087 -0.9563  0.8039
 5923SOL    HW219211   5.588   5.399   3.478 -2.2173 -2.4874 -0.5332
 5924SOL     OW19212   3.018   0.581   6.974 -0.5200 -0.5635  0.1809
 5924SOL    HW119213   3.103   0.625   6.980 -0.5313 -0.6726  1.5542
 5924SOL    HW219214   2.961   0.632   7.031 -1.4894 -0.2629 -1.0494
 5925SOL     OW19215   5.865   1.292   5.327  0.0790  0.2504 -0.4665
 5925SOL    HW119216   5.955   1.287   5.361  0.3107  1.6231 -0.8235
 5925SOL    HW219217   5.839   1.383   5.340 -0.8027  0.1723 -1.5033
 5926SOL     OW19218   1.743   7.257   4.262  0.1314 -0.2306  0.6069
 5926SOL    HW119219   1.778   7.184   4.312  0.2821 -0.7267 -0.2048
 5926SOL    HW219220   1.770   7.335   4.310  2.2100 -0.6015  0.1172
 5927SOL     OW19221   7.074   2.520   4.269 -0.5303  0.0068  0.1525
 5927SOL    HW119222   7.139   2.584   4.239 -1.0085  0.9220  0.9915
 5927SOL    HW219223   7.103   2.437   4.233  1.3163  0.3214  0.8003
 5928SOL     OW19224   6.631   5.132   1.354 -0.5725 -0.2570 -0.5407
 5928SOL    HW119225   6.658   5.207   1.407 -0.1618 -1.1199  0.5114
 5928SOL    HW219226   6.569   5.168   1.291 -1.2373  0.7846  0.6596
 5929SOL     OW19227   3.215   4.583  10.528 -0.4083  0.8476  0.5665
 5929SOL    HW119228   3.306   4.582  10.497 -0.1595  0.0001  1.2788
 5929SOL    HW219229   3.222   4.612  10.619 -0.7475 -0.0527  0.8917
 5930SOL     OW19230   5.834   3.220   2.036 -0.1722 -0.5012  0.4039
 5930SOL    HW119231   5.824   3.216   1.941  0.4210 -2.0388  0.3844
 5930SOL    HW219232   5.921   3.260   2.049 -0.6971  0.7128  0.3481
 5931SOL     OW19233   5.423   2.790   7.023  0.5590 -0.7587 -0.1958
 5931SOL    HW119234   5.425   2.870   6.971 -1.3666  0.0132  0.8082
 5931SOL    HW219235   5.510   2.785   7.062  0.4876  1.3161  0.3576
 5932SOL     OW19236   4.751   7.490   8.760 -0.0242 -0.0472 -0.0302
 5932SOL    HW119237   4.711   7.426   8.700 -0.5933 -0.0699  0.3635
 5932SOL    HW219238   4.836   7.452   8.782 -0.8050 -1.2365  1.0803
 5933SOL     OW19239   0.775   0.688   5.988 -0.1356  0.4162 -0.0707
 5933SOL    HW119240   0.789   0.751   6.059 -1.1540  0.4244  0.1450
 5933SOL    HW219241   0.777   0.602   6.030 -1.2419  0.4442  0.0782
 5934SOL     OW19242   1.727   0.769   1.093 -0.4739  0.0632 -0.8160
 5934SOL    HW119243   1.639   0.733   1.100  0.0742 -1.0374  1.7050
 5934SOL    HW219244   1.722   0.856   1.133 -0.2435 -0.4596  0.4118
 5935SOL     OW19245   7.877   3.708   7.900  0.8663 -0.1484 -0.5050
 5935SOL    HW119246   7.914   3.783   7.854 -0.3081 -0.4392 -1.9963
 5935SOL    HW219247   7.842   3.745   7.982  3.8350  0.2058  0.7184
 5936SOL     OW19248   6.628   3.945   5.152 -0.2272 -0.1575 -0.1743
 5936SOL    HW119249   6.624   3.875   5.087 -0.4268 -0.6638  0.3687
 5936SOL    HW219250   6.600   4.023   5.106 -1.5544 -0.7373 -0.3963
 5937SOL     OW19251   7.521   1.422  10.426 -0.3131 -0.6212 -0.5938
 5937SOL    HW119252   7.434   1.424  10.465  0.4278 -0.1152  1.1354
 5937SOL    HW219253   7.545   1.514  10.417 -0.1224 -0.7507 -1.4785
 5938SOL     OW19254   0.505   2.122  11.803  0.2269 -0.0042  0.2254
 5938SOL    HW119255   0.459   2.096  11.883 -1.3391 -0.4147 -0.7542
 5938SOL    HW219256   0.448   2.093  11.732  2.1192 -0.6986 -1.0938
 5939SOL     OW19257   4.590   5.009   1.430  0.5278 -0.1182 -0.2766
 5939SOL    HW119258   4.522   4.987   1.366 -1.9001  1.1227  1.6796
 5939SOL    HW219259   4.597   4.932   1.485 -0.9764  0.4811  0.8222
 5940SOL     OW19260   1.515   5.782   2.968 -0.5960  0.2561 -0.5953
 5940SOL    HW119261   1.549   5.826   2.890  0.9044  1.0973  0.4845
 5940SOL    HW219262   1.510   5.851   3.035 -1.5717 -0.5016  0.1504
 5941SOL     OW19263   1.701   7.078  10.583  0.5503 -0.1398 -0.3414
 5941SOL    HW119264   1.712   6.984  10.568  1.7888 -0.2207  0.8361
 5941SOL    HW219265   1.785   7.106  10.621 -0.6273  0.9704  1.5818
 5942SOL     OW19266   5.332   6.209  10.250 -0.5208  0.9849 -0.2901
 5942SOL    HW119267   5.303   6.140  10.191 -1.4708  0.5876  0.5999
 5942SOL    HW219268   5.382   6.164  10.318  0.1942  1.3824 -0.5373
 5943SOL     OW19269   5.100   7.339   7.561  0.0124  0.2463  0.2815
 5943SOL    HW119270   5.054   7.411   7.604  1.1319  1.9346 -1.2367
 5943SOL    HW219271   5.153   7.381   7.494  0.7994 -2.0070 -0.5845
 5944SOL     OW19272   4.721   4.599   0.484 -0.1269 -0.1356  0.6256
 5944SOL    HW119273   4.804   4.599   0.436  0.2574 -0.5466  1.2733
 5944SOL    HW219274   4.703   4.692   0.499 -0.2809  0.0064 -0.3336
 5945SOL     OW19275   1.476   6.403   2.614  0.1207  0.2056 -0.2447
 5945SOL    HW119276   1.527   6.410   2.534 -0.0713  2.0255 -0.2488
 5945SOL    HW219277   1.536   6.433   2.683 -0.5352  1.2384 -0.0968
 5946SOL     OW19278   6.048   5.498   7.865  0.0371  0.0324  0.1021
 5946SOL    HW119279   5.969   5.484   7.813  0.8672  0.1538 -1.2213
 5946SOL    HW219280   6.044   5.590   7.892  0.2992  0.3594 -0.9537
 5947SOL     OW19281   2.004   2.294   2.170  0.5304 -0.2225 -0.3481
 5947SOL    HW119282   2.001   2.250   2.255  3.0732  0.6106  0.2820
 5947SOL    HW219283   1.968   2.381   2.186 -2.9002 -1.3616 -1.1948
 5948SOL     OW19284   0.910   2.998   7.413 -0.3622 -0.1060  0.0437
 5948SOL    HW119285   0.926   3.086   7.447 -1.0251 -0.1708  0.5241
 5948SOL    HW219286   0.880   2.947   7.488 -0.3069 -0.6597 -0.2999
 5949SOL     OW19287   5.804   0.850   8.383  0.0499 -0.6531  0.0024
 5949SOL    HW119288   5.874   0.816   8.438 -0.6819  0.6464  1.8363
 5949SOL    HW219289   5.850   0.894   8.311  1.1488  0.0765  1.1025
 5950SOL     OW19290   6.666   6.952   8.662  0.2553 -0.4328  0.0514
 5950SOL    HW119291   6.582   6.968   8.620  1.0665  1.0575 -1.0745
 5950SOL    HW219292   6.652   6.873   8.715 -1.7771 -0.3109 -0.2539
 5951SOL     OW19293   6.694   4.141   0.468  0.1776 -0.7437  0.7070
 5951SOL    HW119294   6.609   4.106   0.441 -0.2260 -0.2712  1.3416
 5951SOL    HW219295   6.741   4.155   0.386 -0.8679  0.2864  0.2523
 5952SOL     OW19296   1.191   5.378   1.329 -0.0529 -0.1384 -0.3918
 5952SOL    HW119297   1.096   5.388   1.321 -0.1805 -0.2481  0.8817
 5952SOL    HW219298   1.215   5.325   1.254 -0.5726  2.2615 -2.4147
 5953SOL     OW19299   1.214   1.220  11.839 -0.2105 -0.9381 -0.2330
 5953SOL    HW119300   1.156   1.254  11.907  0.5832  2.5512 -1.0607
 5953SOL    HW219301   1.157   1.206  11.764 -0.4676 -0.6270 -0.0986
 5954SOL     OW19302   1.509   4.023   5.880 -0.5864 -0.0235 -0.1688
 5954SOL    HW119303   1.444   3.968   5.837  1.0592 -0.6957 -1.9158
 5954SOL    HW219304   1.592   3.999   5.839  0.5784  1.8228  0.9669
 5955SOL     OW19305   2.149   1.632   3.514  0.1095  0.0528 -0.5266
 5955SOL    HW119306   2.086   1.580   3.564  0.0578 -0.1866 -0.8357
 5955SOL    HW219307   2.128   1.723   3.535 -1.2746  0.0435 -1.7103
 5956SOL     OW19308   2.515   6.465   0.564  0.2336 -0.1980 -0.0747
 5956SOL    HW119309   2.527   6.512   0.482 -2.3799 -2.6392 -2.0429
 5956SOL    HW219310   2.586   6.402   0.567  0.3554 -0.0763 -0.4172
 5957SOL     OW19311   3.745   4.177   9.303  0.2832  0.3549 -0.0544
 5957SOL    HW119312   3.667   4.126   9.326 -0.6118  1.0264 -1.4614
 5957SOL    HW219313   3.711   4.260   9.270  1.6318  0.9571  0.0018
 5958SOL     OW19314   3.585   0.500   4.092 -0.6800 -0.2580  0.1672
 5958SOL    HW119315   3.666   0.539   4.123 -0.4223 -0.5557 -0.1212
 5958SOL    HW219316   3.579   0.527   4.000 -0.8198 -0.3833  0.1386
 5959SOL     OW19317   7.114   3.736   6.652  0.1027 -0.3170 -0.1951
 5959SOL    HW119318   7.109   3.783   6.735 -0.1987 -2.6215  1.1802
 5959SOL    HW219319   7.203   3.701   6.649  0.0500 -0.4238 -0.7487
 5960SOL     OW19320   0.737   3.652   9.403  0.1006  0.0880 -0.3327
 5960SOL    HW119321   0.711   3.744   9.402 -0.4352 -0.0675 -1.1915
 5960SOL    HW219322   0.677   3.610   9.464  2.2638  0.8189  2.5315
 5961SOL     OW19323   7.728   6.386   7.165 -0.5231  0.7807  0.0071
 5961SOL    HW119324   7.778   6.335   7.228 -0.0720 -2.2388 -2.5575
 5961SOL    HW219325   7.637   6.360   7.179 -0.3614 -0.3228 -0.8937
 5962SOL     OW19326   0.855   5.404  12.028 -0.1903 -0.4960 -0.4369
 5962SOL    HW119327   0.945   5.389  11.998 -0.3187 -0.3009 -0.9407
 5962SOL    HW219328   0.811   5.441  11.951 -0.4942  0.1566  0.0449
 5963SOL     OW19329   0.589   5.612   4.872 -0.4154  0.1725 -0.1298
 5963SOL    HW119330   0.550   5.685   4.919 -0.3503  0.9899 -1.2979
 5963SOL    HW219331   0.516   5.554   4.851 -0.3069 -0.7915  1.8937
 5964SOL     OW19332   0.384   0.366   0.445 -0.0869 -0.7119  0.4182
 5964SOL    HW119333   0.318   0.309   0.405  1.8236 -2.0841 -0.9327
 5964SOL    HW219334   0.377   0.448   0.398 -0.0867 -1.2285 -0.5028
 5965SOL     OW19335   0.979   5.971   8.633  0.4270 -0.1718 -0.7841
 5965SOL    HW119336   1.004   5.969   8.726 -0.4139  0.1123 -0.5426
 5965SOL    HW219337   1.015   5.890   8.597  0.7475 -0.2952 -0.2053
 5966SOL     OW19338   5.264   5.688   0.123 -0.2337 -0.0432 -0.6744
 5966SOL    HW119339   5.210   5.707   0.200 -0.4817 -1.1990 -0.5463
 5966SOL    HW219340   5.207   5.638   0.065  0.1873  0.1767 -1.2921
 5967SOL     OW19341   6.807   0.761   6.387 -0.4589 -0.9330  0.1680
 5967SOL    HW119342   6.860   0.730   6.314 -0.5613 -4.1141  1.2769
 5967SOL    HW219343   6.840   0.713   6.463 -2.1480  0.1763  1.6893
 5968SOL     OW19344   4.472   3.095   4.510 -0.0442 -0.3005  0.1502
 5968SOL    HW119345   4.412   3.169   4.522  0.8078  0.8101 -2.0300
 5968SOL    HW219346   4.421   3.031   4.462  0.3445  0.4998 -1.3899
 5969SOL     OW19347   7.736   2.290   1.847 -0.0880  0.5459 -0.4086
 5969SOL    HW119348   7.711   2.200   1.865  0.1246  0.4228 -0.7198
 5969SOL    HW219349   7.755   2.327   1.933 -0.2907  0.3286 -0.2692
 5970SOL     OW19350   0.204   2.413   6.852  0.2299 -0.2515 -0.0500
 5970SOL    HW119351   0.142   2.382   6.919 -0.1224 -1.8971 -1.0874
 5970SOL    HW219352   0.148   2.444   6.781  0.6128  0.0010 -0.2423
 5971SOL     OW19353   7.914   2.433   2.318 -0.0148  0.1655 -0.9659
 5971SOL    HW119354   8.003   2.401   2.307  0.0425 -0.5489  1.0879
 5971SOL    HW219355   7.916   2.479   2.402 -0.8164  3.1135 -2.4280
 5972SOL     OW19356   7.384   6.861  12.362  0.4570  0.1562  0.4255
 5972SOL    HW119357   7.350   6.944  12.393 -0.2790  0.8473 -2.0633
 5972SOL    HW219358   7.308   6.803  12.359  0.9384 -0.6161  2.0028
 5973SOL     OW19359   5.162   2.747   2.728 -0.4099  0.3117 -0.0057
 5973SOL    HW119360   5.231   2.715   2.786 -0.4898 -0.5168 -0.3418
 5973SOL    HW219361   5.084   2.752   2.783 -0.5593 -0.7749 -0.0983
 5974SOL     OW19362   7.519   7.194   3.107 -0.0944 -0.3535  0.0819
 5974SOL    HW119363   7.468   7.189   3.188 -0.5397  1.3130 -0.0564
 5974SOL    HW219364   7.606   7.221   3.134 -1.1134  3.8609 -0.1389
 5975SOL     OW19365   1.891   7.481  12.356  0.4848 -0.2164 -0.5596
 5975SOL    HW119366   1.828   7.540  12.315 -2.1269  0.6428  3.9560
 5975SOL    HW219367   1.951   7.539  12.403  0.1085 -1.0648  1.0336
 5976SOL     OW19368   2.492   5.484   8.408  0.2883  0.1654 -0.2137
 5976SOL    HW119369   2.481   5.499   8.314  1.2104 -0.6363 -0.4602
 5976SOL    HW219370   2.547   5.406   8.414  0.6061  0.4637  0.9939
 5977SOL     OW19371   0.195   1.839   7.157  0.5609 -0.6720  0.1684
 5977SOL    HW119372   0.273   1.840   7.102 -0.0185 -2.5465 -0.7712
 5977SOL    HW219373   0.131   1.890   7.109  0.2536 -1.7772 -0.6285
 5978SOL     OW19374   1.053   4.228  11.345 -0.0768 -0.3753 -0.1803
 5978SOL    HW119375   1.066   4.148  11.295  0.3488  0.6293 -1.7633
 5978SOL    HW219376   1.139   4.271  11.345 -0.7202  1.0073 -1.1185
 5979SOL     OW19377   2.576   4.323   4.883 -0.2442 -0.4879 -0.4886
 5979SOL    HW119378   2.593   4.374   4.803  0.5540 -0.8508 -0.5640
 5979SOL    HW219379   2.590   4.386   4.954 -1.0823 -0.1301 -0.6281
 5980SOL     OW19380   1.134   6.872   8.655  0.2448 -0.0105 -0.2447
 5980SOL    HW119381   1.175   6.959   8.657 -0.5565  0.3810 -0.2992
 5980SOL    HW219382   1.091   6.865   8.740 -0.9606  0.2837 -0.8099
 5981SOL     OW19383   1.930   6.790  11.970  0.3773  0.3230  0.0242
 5981SOL    HW119384   1.994   6.841  12.020  0.3900 -0.8254  1.2428
 5981SOL    HW219385   1.866   6.762  12.036 -1.1609  1.0693 -1.0886
 5982SOL     OW19386   1.394   2.221   2.510 -0.0331  0.0619 -0.0900
 5982SOL    HW119387   1.384   2.130   2.539  1.1683 -0.7465 -2.0603
 5982SOL    HW219388   1.476   2.251   2.551  0.9063 -0.6034 -1.4411
 5983SOL     OW19389   7.150   1.954   4.024 -0.2171  0.7447  0.5272
 5983SOL    HW119390   7.107   1.872   4.000  1.3206 -0.2036  0.8599
 5983SOL    HW219391   7.138   1.962   4.118  1.5422 -0.2977  0.8725
 5984SOL     OW19392   2.381   7.341   4.107 -0.1379  0.1931  0.3598
 5984SOL    HW119393   2.360   7.432   4.085 -1.6049 -0.0563  0.6206
 5984SOL    HW219394   2.456   7.319   4.052 -0.8771  1.0106 -1.0022
 5985SOL     OW19395   1.714   4.455   5.165 -0.2729 -0.1743 -0.0021
 5985SOL    HW119396   1.741   4.538   5.126  0.0326  0.0581  0.6884
 5985SOL    HW219397   1.660   4.479   5.240 -0.1982 -0.5979  0.1949
 5986SOL     OW19398   5.363   6.246   2.342  0.2459 -0.6182  0.1107
 5986SOL    HW119399   5.307   6.177   2.305 -2.5129  0.4945  1.8697
 5986SOL    HW219400   5.382   6.216   2.431  2.0211 -0.6813 -0.2671
 5987SOL     OW19401   0.076   1.647   0.627 -0.3027 -0.8279 -0.3691
 5987SOL    HW119402  -0.004   1.626   0.675 -0.3902 -2.1105 -1.0290
 5987SOL    HW219403   0.133   1.572   0.643  0.4966 -0.2701 -0.5224
 5988SOL     OW19404   4.242   5.579   9.454  0.6757  0.1487 -0.5404
 5988SOL    HW119405   4.273   5.491   9.434 -0.5763 -0.1927 -1.1167
 5988SOL    HW219406   4.169   5.566   9.515 -0.8579  0.5799 -2.1822
 5989SOL     OW19407   7.590   5.200   6.874  0.2968 -0.4046  0.0246
 5989SOL    HW119408   7.583   5.280   6.925 -1.0387  0.0889 -0.8697
 5989SOL    HW219409   7.548   5.221   6.791 -0.9171 -2.2986  0.1006
 5990SOL     OW19410   6.366   5.833   0.553  0.1472  0.7865  0.2733
 5990SOL    HW119411   6.382   5.922   0.585  0.4489  0.4572  1.0465
 5990SOL    HW219412   6.352   5.781   0.632  0.1058  0.1152 -0.1693
 5991SOL     OW19413   2.764   7.704  11.812 -0.2341  0.5810  1.3861
 5991SOL    HW119414   2.812   7.785  11.796 -0.2960  0.6647  1.6124
 5991SOL    HW219415   2.779   7.651  11.735 -0.4635  0.9416  1.0901
 5992SOL     OW19416   0.021   5.282   5.831 -0.2931  0.0861  0.1048
 5992SOL    HW119417   0.044   5.330   5.910 -0.6666 -0.1753  0.3765
 5992SOL    HW219418   0.099   5.230   5.812 -0.1089  0.3415  0.1536
 5993SOL     OW19419   3.993   5.692   9.596 -0.1091  0.6078  0.3634
 5993SOL    HW119420   3.909   5.709   9.638 -0.6219 -1.9706  0.5238
 5993SOL    HW219421   4.027   5.614   9.639  1.6923  0.7432 -0.6940
 5994SOL     OW19422   1.833   5.762   3.810 -0.4466  0.3641  0.1398
 5994SOL    HW119423   1.878   5.697   3.757  0.6931  0.4050  1.0249
 5994SOL    HW219424   1.794   5.822   3.747 -0.1994 -0.3030 -0.6544
 5995SOL     OW19425   5.952   3.207   2.624 -0.0079 -0.4517  0.4887
 5995SOL    HW119426   5.910   3.283   2.664  0.2160  0.8942 -1.6670
 5995SOL    HW219427   6.032   3.242   2.585  0.7146 -2.0469  0.4426
 5996SOL     OW19428   1.714   6.907   7.299 -0.4019 -0.5605  0.3411
 5996SOL    HW119429   1.768   6.828   7.300  0.5405 -0.0790 -2.4696
 5996SOL    HW219430   1.720   6.942   7.388  2.8800 -1.2518  0.5149
 5997SOL     OW19431   3.765   2.463   5.585 -0.1402  0.0237 -0.7131
 5997SOL    HW119432   3.797   2.552   5.599  1.9750 -0.7377 -0.2479
 5997SOL    HW219433   3.753   2.428   5.673  3.0301 -1.3929 -0.7024
 5998SOL     OW19434   1.309   7.457  10.586 -0.5619  0.1391 -0.0594
 5998SOL    HW119435   1.221   7.428  10.608 -1.0854  1.5739 -0.2160
 5998SOL    HW219436   1.366   7.400  10.638 -1.3664 -3.0390 -2.3268
 5999SOL     OW19437   7.128   3.038   5.431  0.5515  0.5935  0.1058
 5999SOL    HW119438   7.155   3.062   5.520  0.6772  2.3477 -0.3718
 5999SOL    HW219439   7.152   2.945   5.423 -4.3503 -1.3595  3.7078
 6000SOL     OW19440   4.838   2.937   6.189 -0.2052 -0.3669  0.4337
 6000SOL    HW119441   4.871   2.854   6.225 -1.2145 -1.2746 -0.6774
 6000SOL    HW219442   4.755   2.914   6.148 -0.3865  1.1641 -0.1084
 6001SOL     OW19443   0.958   6.270   8.722  0.0529 -0.8155 -0.4728
 6001SOL    HW119444   0.906   6.208   8.772 -0.2912 -0.8550 -0.8689
 6001SOL    HW219445   0.954   6.352   8.771  0.2327 -1.0154 -0.1231
 6002SOL     OW19446   2.849   6.541  10.425  0.4388  0.3586  0.3130
 6002SOL    HW119447   2.802   6.457  10.425  0.7073  0.1994  1.2885
 6002SOL    HW219448   2.939   6.518  10.403  0.0264  0.7142 -1.9893
 6003SOL     OW19449   4.106   4.462  11.457  0.1421 -0.0337  0.0495
 6003SOL    HW119450   4.069   4.506  11.533 -0.6590 -0.9289  0.1974
 6003SOL    HW219451   4.081   4.370  11.469  0.3891 -0.2520 -1.0706
 6004SOL     OW19452   7.819   0.006  12.022  0.4452  0.0374 -0.3454
 6004SOL    HW119453   7.861  -0.079  12.037  0.7221 -0.0302 -1.4174
 6004SOL    HW219454   7.840   0.057  12.101 -0.0247 -0.9877  0.4708
 6005SOL     OW19455   1.132   7.577   9.631 -0.2411 -0.0386  0.7449
 6005SOL    HW119456   1.171   7.664   9.639  0.8924 -0.5645  1.1509
 6005SOL    HW219457   1.039   7.590   9.652  0.3200  0.7138  3.0181
 6006SOL     OW19458   6.127   6.893   6.476 -0.3888 -0.1381  0.0198
 6006SOL    HW119459   6.065   6.947   6.426 -1.8946  0.0248  1.9262
 6006SOL    HW219460   6.165   6.954   6.540 -1.8953 -1.1746  2.0098
 6007SOL     OW19461   3.570   5.308   1.712  0.1915 -0.5456  0.0736
 6007SOL    HW119462   3.615   5.224   1.704 -1.9977 -1.9312  1.0603
 6007SOL    HW219463   3.477   5.286   1.707 -0.6028  1.3894  3.1520
 6008SOL     OW19464   4.785   6.006   8.264 -0.2803  0.7150  0.5571
 6008SOL    HW119465   4.830   6.046   8.190 -0.0191  0.7894  0.7533
 6008SOL    HW219466   4.713   5.956   8.225 -0.1893  0.8157  0.2615
 6009SOL     OW19467   0.877   4.759   5.913  0.5784 -0.3355 -0.5860
 6009SOL    HW119468   0.838   4.672   5.924 -0.8128  0.2926 -0.3875
 6009SOL    HW219469   0.960   4.754   5.960 -0.0093 -1.2100  0.3923
 6010SOL     OW19470   3.741   2.673   5.004 -0.0867 -0.7630 -0.4677
 6010SOL    HW119471   3.671   2.647   4.944 -0.0789 -0.9469 -0.3948
 6010SOL    HW219472   3.816   2.618   4.980 -0.4919 -1.8244  0.6254
 6011SOL     OW19473   5.371   7.622   3.712 -0.1737 -0.1393  0.1110
 6011SOL    HW119474   5.276   7.626   3.725 -0.4292  0.2831 -1.6220
 6011SOL    HW219475   5.403   7.708   3.740 -0.2380 -0.3877  0.9878
 6012SOL     OW19476   1.317   5.700   0.832  0.5686  0.1114  0.2828
 6012SOL    HW119477   1.375   5.624   0.833 -0.4618 -0.7931 -1.5895
 6012SOL    HW219478   1.243   5.674   0.888  0.8598  0.3134  0.7669
 6013SOL     OW19479   1.408   6.041   3.466  0.1657  0.4192 -0.0206
 6013SOL    HW119480   1.392   6.129   3.498 -0.1360 -0.1569  1.4749
 6013SOL    HW219481   1.489   6.014   3.509 -0.8357 -0.7819  1.1842
 6014SOL     OW19482   3.134   4.625   3.569 -0.7049  0.2194 -0.3382
 6014SOL    HW119483   3.177   4.691   3.623 -0.9006  0.3487 -0.3398
 6014SOL    HW219484   3.141   4.544   3.619  1.4733 -0.2568 -1.2725
 6015SOL     OW19485   5.492   5.008   0.480  1.1562  0.5491  0.5794
 6015SOL    HW119486   5.437   4.930   0.488 -0.9704  1.9326  0.3731
 6015SOL    HW219487   5.468   5.045   0.395  0.9229  2.2572  1.3527
 6016SOL     OW19488   4.270   2.252   4.927 -0.1859 -0.0714 -0.0840
 6016SOL    HW119489   4.358   2.269   4.893 -0.4349  1.3138 -0.0825
 6016SOL    HW219490   4.274   2.279   5.018 -0.4370 -0.6457  0.1017
 6017SOL     OW19491   2.698   6.196   2.033 -0.3574 -0.4083  0.0275
 6017SOL    HW119492   2.633   6.142   1.989 -0.7654 -0.5205  0.7429
 6017SOL    HW219493   2.782   6.161   2.004 -0.6181 -1.0086 -0.0255
 6018SOL     OW19494   4.597   7.178   1.511  0.3270  0.1692  0.3718
 6018SOL    HW119495   4.553   7.246   1.460  0.9414  0.0632 -0.3058
 6018SOL    HW219496   4.565   7.096   1.474  0.1013  0.0899  0.7422
 6019SOL     OW19497   2.526   5.642   1.742  0.5210  0.6265  0.2104
 6019SOL    HW119498   2.525   5.657   1.837 -1.4953  2.1246 -0.0073
 6019SOL    HW219499   2.613   5.672   1.715  0.6432  1.4179  1.3973
 6020SOL     OW19500   6.553   2.739   6.633  0.1864 -0.6065  0.2588
 6020SOL    HW119501   6.502   2.810   6.671  1.3494  0.1222  0.5154
 6020SOL    HW219502   6.554   2.671   6.701 -1.9159 -1.4251 -0.4301
 6021SOL     OW19503   5.272   2.993   5.103  0.7079 -1.1996 -0.3749
 6021SOL    HW119504   5.323   2.942   5.166  1.5232  1.2851  1.1510
 6021SOL    HW219505   5.316   3.078   5.101 -1.7416  0.1442 -1.1494
 6022SOL     OW19506   5.142   4.147  10.311 -0.3393 -0.2720 -0.1432
 6022SOL    HW119507   5.065   4.120  10.360  0.1646 -0.2005  0.7170
 6022SOL    HW219508   5.214   4.139  10.374  0.3989 -0.6185 -1.0134
 6023SOL     OW19509   5.646   3.396   6.556  0.5108  0.5531  0.1637
 6023SOL    HW119510   5.670   3.369   6.645  1.8151 -0.3707 -0.4271
 6023SOL    HW219511   5.655   3.317   6.503 -0.5969  1.0049 -0.7453
 6024SOL     OW19512   4.730   7.779   6.527  0.0688 -0.3075  0.2845
 6024SOL    HW119513   4.666   7.708   6.530 -1.2730  0.8452  0.0315
 6024SOL    HW219514   4.726   7.810   6.436  0.8497 -0.0767  0.3215
 6025SOL     OW19515   1.264   3.215  11.524  0.0181  0.5237  0.0618
 6025SOL    HW119516   1.251   3.306  11.498  4.2235  0.8917 -1.5183
 6025SOL    HW219517   1.230   3.164  11.451 -2.1178  0.7123  0.8409
 6026SOL     OW19518   3.571   2.458   6.301  0.5198  0.0586 -0.3798
 6026SOL    HW119519   3.531   2.447   6.387 -2.0339  4.1926 -0.7581
 6026SOL    HW219520   3.643   2.519   6.316  0.9105 -0.2426 -1.0019
 6027SOL     OW19521   5.194   4.155   1.280  0.0024  0.2837 -0.0475
 6027SOL    HW119522   5.228   4.209   1.352 -0.6747 -0.8501  1.1712
 6027SOL    HW219523   5.179   4.069   1.320 -0.3016 -0.4124 -1.5875
 6028SOL     OW19524   7.364   7.807  10.961  0.0605  0.2055  0.2340
 6028SOL    HW119525   7.404   7.785  11.045 -0.5767 -0.4417  0.3811
 6028SOL    HW219526   7.435   7.794  10.897  0.8138  1.6039  0.7506
 6029SOL     OW19527   7.200   6.021   4.505  0.0182 -0.4679 -0.1087
 6029SOL    HW119528   7.200   6.116   4.509  1.5501 -0.3914 -1.3105
 6029SOL    HW219529   7.173   6.000   4.416  0.5604 -1.1470 -0.1213
 6030SOL     OW19530   6.081   1.648   7.860  0.1080 -0.1472 -0.8907
 6030SOL    HW119531   6.007   1.639   7.919 -0.0954  0.9380 -0.9707
 6030SOL    HW219532   6.042   1.661   7.774  0.3936  0.0706 -0.9880
 6031SOL     OW19533   4.296   6.267  11.862 -0.1479  0.4641 -0.0388
 6031SOL    HW119534   4.364   6.243  11.925  1.1146 -0.1989 -1.5826
 6031SOL    HW219535   4.250   6.185  11.844 -1.0837  0.8171  0.6258
 6032SOL     OW19536   7.550   3.720   6.905  0.5713  0.3546 -0.0229
 6032SOL    HW119537   7.573   3.714   6.998 -2.6103  1.1262  0.9456
 6032SOL    HW219538   7.564   3.812   6.882  1.0199  0.2405 -0.2120
 6033SOL     OW19539   0.700   5.957   5.881 -0.3800 -0.6640  0.6122
 6033SOL    HW119540   0.611   5.991   5.877 -0.7375 -1.7343 -2.4519
 6033SOL    HW219541   0.755   6.030   5.852 -0.3527 -0.4314  1.2191
 6034SOL     OW19542   2.041   6.141   1.031 -0.5939  0.1266 -0.3159
 6034SOL    HW119543   1.951   6.152   1.062 -0.2066 -0.1036  0.9658
 6034SOL    HW219544   2.033   6.132   0.936 -2.1738 -2.4247 -0.0424
 6035SOL     OW19545   6.455   6.817   7.999  0.0656 -0.1965 -0.0277
 6035SOL    HW119546   6.533   6.837   8.051  0.2798  1.1082 -0.7954
 6035SOL    HW219547   6.483   6.751   7.937  1.1913  1.7009 -1.6511
 6036SOL     OW19548   7.621   0.346   3.197  0.0427  0.0708  0.3100
 6036SOL    HW119549   7.584   0.261   3.172 -0.5105 -0.6121  3.0931
 6036SOL    HW219550   7.567   0.411   3.152 -1.9320 -1.0041  1.0284
 6037SOL     OW19551   1.064   0.098   2.839 -0.0638 -0.4478  0.3298
 6037SOL    HW119552   0.972   0.122   2.851  0.0696  0.1780  0.1435
 6037SOL    HW219553   1.073   0.013   2.882 -1.0321 -1.1316 -0.7525
 6038SOL     OW19554   3.104   2.515   9.209  0.1601 -0.0370  0.2837
 6038SOL    HW119555   3.016   2.514   9.246  0.0122  0.5593 -0.0388
 6038SOL    HW219556   3.105   2.442   9.147 -0.6855  1.0410 -1.0182
 6039SOL     OW19557   7.475   6.251  11.073  0.3293 -0.1884  0.6711
 6039SOL    HW119558   7.435   6.180  11.021  0.5140  0.1877  0.0035
 6039SOL    HW219559   7.558   6.268  11.029 -0.8721  2.3150 -0.8987
 6040SOL     OW19560   4.392   1.161  10.234  0.0834  0.2174 -0.9143
 6040SOL    HW119561   4.392   1.251  10.202  3.2505  1.3088  1.6108
 6040SOL    HW219562   4.326   1.160  10.304  1.8395  1.4904  0.8813
 6041SOL     OW19563   2.657   3.754  10.917 -0.3534  0.3411 -0.0774
 6041SOL    HW119564   2.745   3.743  10.880 -0.7488  1.0971 -1.3109
 6041SOL    HW219565   2.611   3.674  10.892 -0.6028  0.8248 -1.2360
 6042SOL     OW19566   4.000   5.089   0.048 -0.3211 -0.5813  0.0044
 6042SOL    HW119567   4.047   5.130   0.121 -1.0913 -0.5609  0.4964
 6042SOL    HW219568   4.069   5.062  -0.012  0.2630  0.4422  0.1944
 6043SOL     OW19569   7.258   0.378  10.970 -0.1715 -0.0960 -0.2335
 6043SOL    HW119570   7.283   0.416  10.885  0.6709 -1.9243 -0.8500
 6043SOL    HW219571   7.163   0.390  10.974 -0.0706  1.1178 -0.8585
 6044SOL     OW19572   3.484   7.925   9.559 -0.1128  0.1901  0.5871
 6044SOL    HW119573   3.571   7.950   9.530  0.0715  0.3368  1.2564
 6044SOL    HW219574   3.434   7.913   9.478  0.3636  0.6808  0.2175
 6045SOL     OW19575   2.643   6.680   3.343 -0.3895 -0.1020  0.0740
 6045SOL    HW119576   2.734   6.684   3.316 -0.0195 -1.8299  0.9448
 6045SOL    HW219577   2.604   6.612   3.288 -0.4682 -1.2285  1.4681
 6046SOL     OW19578   7.382   5.370   4.923 -0.2766  0.2956 -0.3531
 6046SOL    HW119579   7.341   5.339   4.842 -1.4300 -0.0529  0.3393
 6046SOL    HW219580   7.460   5.316   4.934 -1.3710 -1.2842 -0.0244
 6047SOL     OW19581   0.822   4.031   7.983  0.6705 -0.1444  0.3059
 6047SOL    HW119582   0.882   4.007   7.913  1.0578  1.7540 -0.0672
 6047SOL    HW219583   0.874   4.020   8.063  0.2913 -2.1109  0.3491
 6048SOL     OW19584   3.129   0.589   1.036  0.3480 -0.1846  0.6535
 6048SOL    HW119585   3.073   0.656   1.077  1.4910  1.5104 -0.4060
 6048SOL    HW219586   3.072   0.546   0.972 -0.5501 -0.5955  1.7057
 6049SOL     OW19587   4.376   6.432   0.547  0.5776  0.5698 -0.5279
 6049SOL    HW119588   4.423   6.484   0.483  1.0522 -0.4707 -1.0487
 6049SOL    HW219589   4.400   6.342   0.527 -0.1397  0.1509  0.4145
 6050SOL     OW19590   0.286   6.774   1.349 -0.7068  0.3702  0.4426
 6050SOL    HW119591   0.324   6.812   1.428  0.4003 -0.4454  0.3316
 6050SOL    HW219592   0.361   6.758   1.292 -1.4955  1.0032 -0.8085
 6051SOL     OW19593   3.474   5.871   0.707  0.0326  0.4179 -0.1957
 6051SOL    HW119594   3.443   5.904   0.623 -1.1250 -0.2266 -0.0381
 6051SOL    HW219595   3.445   5.936   0.771 -0.2526  0.2449 -0.1472
 6052SOL     OW19596   2.820   5.942   1.105  0.1918  0.1958 -0.7051
 6052SOL    HW119597   2.859   5.906   1.026 -1.7429 -0.8940 -1.2574
 6052SOL    HW219598   2.725   5.935   1.089 -0.2742  3.0087  0.3630
 6053SOL     OW19599   1.487   6.462   2.299  0.1846 -0.2136 -1.0040
 6053SOL    HW119600   1.460   6.553   2.287 -1.0674 -0.4061  0.0468
 6053SOL    HW219601   1.568   6.453   2.249  0.2935  1.4584 -1.1680
 6054SOL     OW19602   4.297   3.817   0.969 -0.0109 -0.2107  0.1259
 6054SOL    HW119603   4.271   3.759   0.898 -0.3103  0.9203 -0.7174
 6054SOL    HW219604   4.277   3.905   0.937 -0.3080  0.3227  1.6729
 6055SOL     OW19605   6.236   4.060   7.340  0.2765 -0.0218  0.2569
 6055SOL    HW119606   6.327   4.091   7.339  0.4373 -0.4767  0.6713
 6055SOL    HW219607   6.185   4.137   7.362  0.2652  0.9862 -2.8518
 6056SOL     OW19608   4.348   1.145   9.304  0.0651 -0.4485 -0.9292
 6056SOL    HW119609   4.298   1.106   9.376 -1.2335  0.3121 -1.3891
 6056SOL    HW219610   4.350   1.239   9.325  0.3698 -0.3327 -1.4804
 6057SOL     OW19611   5.746   3.651  11.554 -0.4770 -0.3561 -0.2229
 6057SOL    HW119612   5.706   3.690  11.631  1.2217 -0.3466  0.7078
 6057SOL    HW219613   5.741   3.557  11.569 -0.8019 -0.3769 -0.4561
 6058SOL     OW19614   4.841   0.302   8.243  0.7242 -0.1458 -0.4254
 6058SOL    HW119615   4.751   0.335   8.236  0.8037  0.2128  0.2115
 6058SOL    HW219616   4.834   0.209   8.222  0.0529 -0.3176  0.5068
 6059SOL     OW19617   1.785   2.922  12.094  0.7073 -0.0514  0.5806
 6059SOL    HW119618   1.736   2.987  12.045  4.1046  2.6626  0.3571
 6059SOL    HW219619   1.766   2.942  12.186  0.2202 -0.0624  0.4833
 6060SOL     OW19620   1.865   0.072   7.578 -0.1706 -0.9604 -0.0519
 6060SOL    HW119621   1.802   0.064   7.649  0.4933 -0.1513  0.6485
 6060SOL    HW219622   1.811   0.069   7.498 -0.9758 -1.3409  0.4912
 6061SOL     OW19623   5.140   0.027   6.082  0.1247 -0.5589  0.6649
 6061SOL    HW119624   5.216   0.027   6.025  0.6044 -2.6025  1.2306
 6061SOL    HW219625   5.173   0.001   6.168 -1.0774 -0.7191  1.1111
 6062SOL     OW19626   5.278   0.796   7.959 -0.0178 -0.2325  0.4862
 6062SOL    HW119627   5.225   0.717   7.967  1.5719 -1.4454 -0.4294
 6062SOL    HW219628   5.263   0.826   7.869 -0.1956  0.2200  0.6608
 6063SOL     OW19629   4.786   5.223   4.707  0.1807 -0.4255 -0.1961
 6063SOL    HW119630   4.805   5.249   4.796  1.7942 -0.9674 -0.3413
 6063SOL    HW219631   4.868   5.239   4.659 -1.1556  1.5025 -1.9888
 6064SOL     OW19632   0.519   1.662  11.299 -0.5722 -0.0109  0.1922
 6064SOL    HW119633   0.468   1.582  11.310  1.2949 -1.4513 -1.0865
 6064SOL    HW219634   0.459   1.723  11.257 -2.2130 -0.4818  1.7296
 6065SOL     OW19635   5.382   0.150  12.219  0.3204 -0.4254 -0.5457
 6065SOL    HW119636   5.307   0.119  12.169  1.0990 -2.3397 -0.6160
 6065SOL    HW219637   5.345   0.183  12.301 -0.6075 -1.1728 -0.6530
 6066SOL     OW19638   5.285   6.971   5.676 -0.0402 -0.1860  0.2071
 6066SOL    HW119639   5.267   6.895   5.731  0.4840 -0.5663 -0.1457
 6066SOL    HW219640   5.365   6.948   5.628 -0.2958  0.2867 -0.4531
 6067SOL     OW19641   2.024   4.629   2.942  0.0600 -0.4488  0.3676
 6067SOL    HW119642   2.005   4.694   2.875 -1.7786  1.2167  2.3493
 6067SOL    HW219643   2.055   4.553   2.893 -2.3774  0.1914 -2.4773
 6068SOL     OW19644   4.843   4.858  11.472 -0.3419 -0.1669 -0.5377
 6068SOL    HW119645   4.848   4.852  11.377 -2.8970  0.1350 -0.7575
 6068SOL    HW219646   4.884   4.777  11.503  1.7007  0.3024 -1.7692
 6069SOL     OW19647   1.882   1.886   0.267 -0.2893 -0.2437 -0.2533
 6069SOL    HW119648   1.871   1.794   0.290 -0.5987 -0.3747 -0.8814
 6069SOL    HW219649   1.840   1.894   0.181 -2.5488  1.0273  0.8664
 6070SOL     OW19650   0.132   3.012  11.979  0.1049 -0.7962 -0.3397
 6070SOL    HW119651   0.169   3.047  12.060 -1.9620  0.6689  0.0648
 6070SOL    HW219652   0.101   2.925  12.001  0.2408 -0.6982  0.2337
 6071SOL     OW19653   3.917   5.876   9.104 -0.1925 -0.0829  0.2397
 6071SOL    HW119654   3.884   5.808   9.045 -0.8921 -0.1813  0.7436
 6071SOL    HW219655   3.919   5.835   9.190  0.3898  0.2098  0.3746
 6072SOL     OW19656   4.502   0.925  10.332  0.1364 -0.1607 -0.6917
 6072SOL    HW119657   4.442   0.998  10.318 -0.8607 -1.0112 -0.9832
 6072SOL    HW219658   4.582   0.950  10.284 -1.2191 -0.5391 -3.3615
 6073SOL     OW19659   7.292   6.476   5.805 -0.0980 -0.1885  0.0965
 6073SOL    HW119660   7.281   6.475   5.900  1.4472  1.8490  0.3691
 6073SOL    HW219661   7.214   6.521   5.772 -0.8610 -1.3035  0.3185
 6074SOL     OW19662   5.924   5.194   4.696 -0.3439 -0.6086  0.5538
 6074SOL    HW119663   5.927   5.241   4.780 -0.7544  0.3345  0.0529
 6074SOL    HW219664   5.840   5.218   4.658  0.0551 -0.6250 -0.3628
 6075SOL     OW19665   1.896   5.749   5.700 -0.0765  0.3116  0.1952
 6075SOL    HW119666   1.927   5.807   5.630 -0.0953 -2.2887 -2.1408
 6075SOL    HW219667   1.800   5.754   5.695 -0.0766  0.2473  0.1273
 6076SOL     OW19668   5.723   0.142   4.392 -0.1776 -0.2205  0.2042
 6076SOL    HW119669   5.787   0.117   4.458 -0.8185 -2.2198  0.1334
 6076SOL    HW219670   5.639   0.137   4.437 -0.4931 -0.0607 -0.3527
 6077SOL     OW19671   7.335   0.980   9.108 -0.7118  0.7252 -0.6697
 6077SOL    HW119672   7.430   0.993   9.116 -0.0867 -1.8097 -2.3900
 6077SOL    HW219673   7.315   1.007   9.018 -1.7177  1.5475 -0.2160
 6078SOL     OW19674   4.770   0.917   8.714 -0.2291 -0.5307 -0.8657
 6078SOL    HW119675   4.738   0.882   8.630 -0.2713 -0.6189 -0.8131
 6078SOL    HW219676   4.816   0.997   8.690 -0.3102 -0.5133 -0.9652
 6079SOL     OW19677   7.856   7.170   9.440  0.4388  0.3428  0.0764
 6079SOL    HW119678   7.785   7.220   9.481 -2.6339 -3.3060 -0.3227
 6079SOL    HW219679   7.917   7.152   9.512  0.6946  2.8660  0.5943
 6080SOL     OW19680   1.840   3.643   4.114  0.9438 -0.0595  0.0595
 6080SOL    HW119681   1.852   3.617   4.022  0.6558 -0.5379  0.1536
 6080SOL    HW219682   1.904   3.713   4.127  0.6125  0.3922 -0.6584
 6081SOL     OW19683   3.508   5.324  12.374  0.1066  0.2349 -0.2237
 6081SOL    HW119684   3.589   5.283  12.404  0.3521  0.9153  0.0850
 6081SOL    HW219685   3.450   5.323  12.451  0.4392  1.2455  0.0631
 6082SOL     OW19686   5.386   7.549   5.111  0.2097 -0.2951  0.1969
 6082SOL    HW119687   5.379   7.522   5.020  0.9030  1.0746 -0.2732
 6082SOL    HW219688   5.479   7.559   5.127  0.1623 -1.3733  1.3347
 6083SOL     OW19689   6.479   7.755   3.157  0.2081 -0.5256  0.3835
 6083SOL    HW119690   6.504   7.847   3.155  3.3735 -1.2576  0.6977
 6083SOL    HW219691   6.540   7.713   3.096 -2.0165 -2.2917 -0.7836
 6084SOL     OW19692   4.531   5.420   2.897  0.0944 -0.3781 -0.7827
 6084SOL    HW119693   4.572   5.382   2.975  0.7298  0.1723 -0.8339
 6084SOL    HW219694   4.602   5.468   2.855 -0.0435 -1.3216 -2.1359
 6085SOL     OW19695   0.903   0.349   3.419  0.0160  0.1803  0.1833
 6085SOL    HW119696   0.830   0.287   3.417  1.1363 -1.1815 -0.3810
 6085SOL    HW219697   0.957   0.321   3.493  0.4754  0.5628  0.0009
 6086SOL     OW19698   3.215   3.074   7.658 -0.1092  0.6853  0.8896
 6086SOL    HW119699   3.262   3.139   7.605 -1.7217  3.0877  2.1752
 6086SOL    HW219700   3.143   3.045   7.601 -0.2835  1.2293  0.8226
 6087SOL     OW19701   3.110   4.630   1.657 -0.0819 -0.2756 -0.0540
 6087SOL    HW119702   3.048   4.595   1.593  0.3937 -0.0091 -0.6687
 6087SOL    HW219703   3.189   4.648   1.607  0.4976 -0.6108  0.7229
 6088SOL     OW19704   3.093   5.806   8.696 -0.1136  0.3480  0.5249
 6088SOL    HW119705   3.057   5.866   8.631 -3.0992 -1.6856  0.1187
 6088SOL    HW219706   3.016   5.769   8.740  1.6237 -2.0833  1.7356
 6089SOL     OW19707   2.255   5.890   9.494 -0.7194 -0.3888 -0.3287
 6089SOL    HW119708   2.324   5.835   9.456 -1.1141 -0.9522 -0.2494
 6089SOL    HW219709   2.176   5.867   9.445 -1.4269 -1.7756  1.3505
 6090SOL     OW19710   6.188   5.357  10.990  0.8416 -0.9618  0.2618
 6090SOL    HW119711   6.158   5.371  10.900  1.5802 -0.8513  0.0339
 6090SOL    HW219712   6.154   5.433  11.037  1.0089 -0.6861 -0.0562
 6091SOL     OW19713   4.648   4.007  10.861  0.2399  0.2560 -0.0009
 6091SOL    HW119714   4.714   3.945  10.829 -2.3271 -2.0729 -1.1482
 6091SOL    HW219715   4.629   4.063  10.785 -1.4797 -1.3020 -0.7654
 6092SOL     OW19716   5.501   4.473  11.548  0.8505  0.0237 -0.4743
 6092SOL    HW119717   5.469   4.427  11.471 -0.9767  2.1151 -1.0707
 6092SOL    HW219718   5.422   4.504  11.592  1.8971 -0.0864  1.6125
 6093SOL     OW19719   3.498   6.191   4.055 -0.1263 -0.3675  0.3811
 6093SOL    HW119720   3.464   6.279   4.072  1.7015  0.1241  1.8772
 6093SOL    HW219721   3.421   6.137   4.040 -1.3757  1.1813  1.0205
 6094SOL     OW19722   4.780   1.762  10.939 -0.3568 -0.0714 -0.4821
 6094SOL    HW119723   4.857   1.713  10.967 -0.8822 -0.5500  0.1663
 6094SOL    HW219724   4.771   1.832  11.004 -0.9356 -0.5127 -0.0768
 6095SOL     OW19725   3.991   6.868   9.451  0.4585 -0.3924 -0.6526
 6095SOL    HW119726   4.008   6.874   9.545  0.8508  0.9304 -0.7860
 6095SOL    HW219727   3.902   6.899   9.441  1.2855  2.1150 -0.9583
 6096SOL     OW19728   7.093   2.212  11.228  0.2201 -0.5348  0.0342
 6096SOL    HW119729   7.184   2.236  11.206  0.1797 -1.9677 -1.9725
 6096SOL    HW219730   7.040   2.282  11.190  0.4438  0.2983  1.1981
 6097SOL     OW19731   4.170   1.580   2.339 -0.2782  0.0671  0.0615
 6097SOL    HW119732   4.116   1.555   2.414  1.1310 -2.5442  0.3088
 6097SOL    HW219733   4.256   1.545   2.359  0.1900 -0.5836 -2.6988
 6098SOL     OW19734   3.053   1.485   3.502  0.3844 -0.1785 -0.2917
 6098SOL    HW119735   3.078   1.456   3.415 -2.1164 -0.1400 -1.1207
 6098SOL    HW219736   2.979   1.429   3.525  0.2490  0.5947  1.3027
 6099SOL     OW19737   3.987   1.066  10.256  0.0907  0.6535 -0.1352
 6099SOL    HW119738   3.912   1.041  10.309 -0.0851  0.5300 -0.4343
 6099SOL    HW219739   3.971   1.158  10.233  1.3110  1.4443  1.9244
 6100SOL     OW19740   7.182   4.066   9.042 -0.2229  0.1777  0.2684
 6100SOL    HW119741   7.155   3.984   9.002 -0.3540 -0.8476  2.3287
 6100SOL    HW219742   7.261   4.044   9.092  0.5094  1.6199 -0.1777
 6101SOL     OW19743   2.539   6.664   4.137 -0.1433 -0.0398 -0.0837
 6101SOL    HW119744   2.491   6.581   4.139  0.0841 -0.1935  2.7566
 6101SOL    HW219745   2.609   6.653   4.201  0.9924  1.7514 -0.9473
 6102SOL     OW19746   6.395   3.979  10.877  0.4340  0.3214 -0.5725
 6102SOL    HW119747   6.486   3.962  10.852  0.6375 -0.4645  0.6062
 6102SOL    HW219748   6.355   4.017  10.799  1.9093  1.1863 -0.9373
 6103SOL     OW19749   5.693   6.496   2.762  0.4062  0.3435 -0.1295
 6103SOL    HW119750   5.717   6.586   2.744  0.9599  0.1621 -0.3009
 6103SOL    HW219751   5.606   6.502   2.801  0.6253  0.9845  0.2705
 6104SOL     OW19752   0.759   7.122   6.693 -0.2071 -0.2138 -0.1597
 6104SOL    HW119753   0.790   7.084   6.775  1.2907 -0.1538 -0.6668
 6104SOL    HW219754   0.674   7.081   6.678 -0.1563 -0.7989  1.0274
 6105SOL     OW19755   6.955   6.823   3.136 -0.1364  0.4474  0.0707
 6105SOL    HW119756   7.012   6.822   3.213 -0.0125  1.9762  0.0255
 6105SOL    HW219757   6.991   6.756   3.079  1.4869  1.1857  0.1643
 6106SOL     OW19758   4.108   0.665  10.490  0.4115 -0.3450 -0.6512
 6106SOL    HW119759   4.134   0.720  10.564 -0.6428 -0.9476  0.1907
 6106SOL    HW219760   4.185   0.611  10.472  0.5061 -0.5682  0.3586
 6107SOL     OW19761   1.766   5.443   8.451 -0.3622  0.3240 -0.4181
 6107SOL    HW119762   1.675   5.413   8.455 -1.0148  1.7877 -2.6218
 6107SOL    HW219763   1.797   5.435   8.541 -1.1103 -4.6131 -0.3058
 6108SOL     OW19764   6.294   2.327   0.698  0.6992  0.2497  0.5919
 6108SOL    HW119765   6.353   2.363   0.631  1.7358 -0.6294  1.0099
 6108SOL    HW219766   6.211   2.371   0.682  0.6654 -0.5155 -1.8173
 6109SOL     OW19767   5.615   2.590   5.397  0.1602  0.2990  0.1408
 6109SOL    HW119768   5.602   2.683   5.412 -0.1702  0.2845 -0.0579
 6109SOL    HW219769   5.554   2.567   5.327  1.8415  0.4301 -1.4592
 6110SOL     OW19770   1.580   5.207   1.146  0.0145  0.0448  0.1910
 6110SOL    HW119771   1.610   5.290   1.109  1.0068 -1.1532 -1.8757
 6110SOL    HW219772   1.508   5.180   1.089  1.3579 -1.6838 -0.8066
 6111SOL     OW19773   2.808   5.648   0.231  0.2978  0.0519  0.1156
 6111SOL    HW119774   2.900   5.624   0.235  0.2444 -0.2214 -0.2107
 6111SOL    HW219775   2.761   5.566   0.243  0.0684  0.3703  1.5924
 6112SOL     OW19776   6.073   1.294  11.536 -0.2690 -0.2326 -0.1891
 6112SOL    HW119777   5.993   1.346  11.537  0.7152  1.4187 -1.8540
 6112SOL    HW219778   6.098   1.287  11.628 -0.5682  2.0567  0.1093
 6113SOL     OW19779   7.778   3.833   1.413 -0.2098  0.3209  0.1052
 6113SOL    HW119780   7.820   3.747   1.400 -1.6146 -0.4550  0.4961
 6113SOL    HW219781   7.795   3.855   1.504  0.5269  0.6806 -0.1121
 6114SOL     OW19782   6.637   2.367   3.140  0.0223  0.4536  0.5981
 6114SOL    HW119783   6.558   2.390   3.189 -0.8072 -0.6185 -0.1944
 6114SOL    HW219784   6.626   2.412   3.056  1.2748  2.0023  1.2057
 6115SOL     OW19785   4.503   3.996  11.558 -0.0641  0.1515  0.6970
 6115SOL    HW119786   4.596   4.004  11.536  0.4187 -0.8292  2.2295
 6115SOL    HW219787   4.461   3.975  11.475  1.2099 -0.2408  0.1193
 6116SOL     OW19788   2.822   2.761  10.970  0.4701  0.2892 -0.4429
 6116SOL    HW119789   2.752   2.710  11.012 -0.3120  0.9158 -0.9460
 6116SOL    HW219790   2.847   2.826  11.035  0.1063  0.4864 -0.4941
 6117SOL     OW19791   0.553   7.214   8.242 -0.8070 -0.1922  0.3101
 6117SOL    HW119792   0.596   7.291   8.206 -2.3826  1.3498  1.5519
 6117SOL    HW219793   0.462   7.223   8.214 -1.1659 -1.2210  1.0869
 6118SOL     OW19794   4.296   4.246  11.975  0.1828  0.2258 -0.1421
 6118SOL    HW119795   4.346   4.186  11.920  0.1219 -0.6367  0.7183
 6118SOL    HW219796   4.313   4.332  11.937  1.2970 -0.1834 -0.6344
 6119SOL     OW19797   1.887   1.692   5.136  0.1403  0.1818 -0.0823
 6119SOL    HW119798   1.931   1.645   5.064 -2.3584 -2.1448 -0.2391
 6119SOL    HW219799   1.814   1.737   5.094 -1.1456 -0.9270  0.8681
 6120SOL     OW19800   0.668   4.885   3.663 -0.4076  0.0950 -0.4047
 6120SOL    HW119801   0.670   4.968   3.711 -0.5401  0.0447 -0.3119
 6120SOL    HW219802   0.576   4.858   3.665 -0.0797 -1.0626  1.3021
 6121SOL     OW19803   3.280   6.824   8.767 -0.0280  0.0648  0.3121
 6121SOL    HW119804   3.214   6.765   8.730  0.1942 -1.0182  1.5698
 6121SOL    HW219805   3.258   6.829   8.860  2.4792 -1.5438  1.0973
 6122SOL     OW19806   3.798   2.226  11.529  0.1950  0.4128  0.4658
 6122SOL    HW119807   3.726   2.245  11.469 -0.7944  1.0633  1.7869
 6122SOL    HW219808   3.793   2.295  11.595 -0.0303 -1.3515  2.3988
 6123SOL     OW19809   7.381   2.439   9.779 -0.0274  0.2496  0.0121
 6123SOL    HW119810   7.312   2.426   9.714 -0.1975  1.2043 -0.0113
 6123SOL    HW219811   7.461   2.411   9.734 -0.4797 -1.7405  0.3472
 6124SOL     OW19812   3.006   7.545   9.369 -0.1142 -0.1724 -0.0494
 6124SOL    HW119813   3.057   7.503   9.300  0.2705 -0.0233  0.1394
 6124SOL    HW219814   3.066   7.549   9.444  0.2978  1.8406 -0.4356
 6125SOL     OW19815   7.290   5.050   6.710  0.3418  0.3979  0.2592
 6125SOL    HW119816   7.352   5.109   6.667 -1.0779  1.7927  0.0335
 6125SOL    HW219817   7.279   4.978   6.648  2.4821 -0.4218  0.7515
 6126SOL     OW19818   7.319   3.758   7.078 -0.4844 -0.0052  0.9023
 6126SOL    HW119819   7.319   3.663   7.082 -0.4369 -0.3128 -2.8617
 6126SOL    HW219820   7.394   3.780   7.022 -2.1634  1.9798 -0.7382
 6127SOL     OW19821   4.960   6.307   3.309 -0.1238 -0.3565  0.6438
 6127SOL    HW119822   4.980   6.391   3.269 -0.0635 -1.4733 -1.8851
 6127SOL    HW219823   4.873   6.318   3.346 -1.1301  0.2333 -1.7018
 6128SOL     OW19824   7.559   1.361   6.956 -0.5587  0.1510  0.2364
 6128SOL    HW119825   7.611   1.281   6.968 -2.0839 -0.8729  0.2782
 6128SOL    HW219826   7.611   1.430   6.997  0.2460 -1.0307  1.2703
 6129SOL     OW19827   6.981   6.027  10.100 -0.4408 -0.4282 -0.7576
 6129SOL    HW119828   7.028   6.032  10.017  3.5513  0.8338  1.3070
 6129SOL    HW219829   7.013   5.947  10.141  0.1803  0.5963  0.8498
 6130SOL     OW19830   2.323   7.604   4.318 -0.1619 -0.4557 -0.4628
 6130SOL    HW119831   2.385   7.637   4.382 -1.8091  0.9100  0.4891
 6130SOL    HW219832   2.319   7.510   4.334 -0.1736 -0.2045  1.1363
 6131SOL     OW19833   3.585   7.407   1.523  0.4383  0.3224  0.7662
 6131SOL    HW119834   3.597   7.318   1.555 -2.0126 -0.8361 -1.1423
 6131SOL    HW219835   3.659   7.422   1.464  0.0104 -1.1818 -0.2232
 6132SOL     OW19836   2.866   3.588  11.182  0.5863  0.0605 -0.4899
 6132SOL    HW119837   2.794   3.581  11.119  1.0961 -1.1496 -0.9665
 6132SOL    HW219838   2.895   3.678  11.174  0.9853 -0.1863 -2.4117
 6133SOL     OW19839   3.362   2.418   2.354 -0.4868 -0.3292  0.2489
 6133SOL    HW119840   3.381   2.414   2.260 -0.9419  1.6592  0.0176
 6133SOL    HW219841   3.431   2.474   2.390 -1.3975  0.5170  0.7372
 6134SOL     OW19842   0.117   7.812   2.937 -0.1599 -0.0498 -0.2164
 6134SOL    HW119843   0.173   7.771   3.003  2.3453  0.8311 -1.6461
 6134SOL    HW219844   0.041   7.844   2.985  0.8668 -0.7272  1.9548
 6135SOL     OW19845   0.309   4.817   8.258 -0.2863 -0.0990  0.0136
 6135SOL    HW119846   0.333   4.753   8.190 -0.6925  1.4586 -1.6845
 6135SOL    HW219847   0.219   4.794   8.281  0.5673 -2.0096  1.7275
 6136SOL     OW19848   6.082   7.779   8.026 -0.3167 -0.0617 -0.0612
 6136SOL    HW119849   6.105   7.742   8.111 -0.7995 -0.2038  0.0121
 6136SOL    HW219850   6.161   7.826   7.998  0.8994 -2.4304 -0.8799
 6137SOL     OW19851   0.892   2.130   0.784  0.1363 -0.2568 -0.2532
 6137SOL    HW119852   0.895   2.194   0.856  1.6326  0.1632 -0.6526
 6137SOL    HW219853   0.806   2.089   0.792 -0.5578  1.2744  0.4798
 6138SOL     OW19854   4.833   6.741   6.517  0.2989  0.3166  0.1970
 6138SOL    HW119855   4.887   6.668   6.547  0.0446  0.5291  1.1985
 6138SOL    HW219856   4.782   6.704   6.445  0.1014 -0.5418  0.7536
 6139SOL     OW19857   1.749   1.880   1.325 -0.5446  0.0943 -0.3175
 6139SOL    HW119858   1.825   1.836   1.287 -0.4753 -0.0498 -0.0112
 6139SOL    HW219859   1.679   1.865   1.261 -0.4024 -0.0636 -0.4383
 6140SOL     OW19860   7.616   0.265  12.311 -0.2011  0.3639 -0.4395
 6140SOL    HW119861   7.645   0.308  12.391 -2.0987  0.5276  0.2008
 6140SOL    HW219862   7.621   0.333  12.244  1.3506  0.2393 -0.4879
 6141SOL     OW19863   3.770   4.445   3.590  0.2064  0.3696 -0.0755
 6141SOL    HW119864   3.778   4.359   3.631 -0.0502  0.8492  1.0191
 6141SOL    HW219865   3.855   4.486   3.605 -0.7819  1.6911  2.7604
 6142SOL     OW19866   5.671   2.263   5.980  0.3547 -0.2680 -0.1363
 6142SOL    HW119867   5.712   2.202   6.042  1.0199  0.8673  0.5778
 6142SOL    HW219868   5.741   2.285   5.918 -0.1518 -0.9585 -0.9695
 6143SOL     OW19869   5.483   5.709   5.705  0.7963 -0.2844 -0.3570
 6143SOL    HW119870   5.495   5.649   5.632  0.5232 -1.1388  0.2874
 6143SOL    HW219871   5.534   5.786   5.681 -1.6439  0.7308 -2.8500
 6144SOL     OW19872   5.551   1.247   6.826  0.1574  0.1428  0.2419
 6144SOL    HW119873   5.569   1.262   6.919  0.3523 -1.6117  0.5271
 6144SOL    HW219874   5.469   1.198   6.825  0.6131 -0.6348 -0.4323
 6145SOL     OW19875   1.567   1.479   5.997 -0.1723  0.4189 -0.2693
 6145SOL    HW119876   1.628   1.432   6.055  0.3094 -0.8529 -1.7378
 6145SOL    HW219877   1.481   1.444   6.021  0.1017 -0.6795 -0.8057
 6146SOL     OW19878   4.949   3.481   0.100 -0.1030 -0.6414  0.4550
 6146SOL    HW119879   4.957   3.417   0.029 -1.4502 -0.0653 -0.2533
 6146SOL    HW219880   4.898   3.435   0.168  1.8698 -1.4765  1.4597
 6147SOL     OW19881   0.269   4.118   1.562  0.2735 -0.8247  0.2304
 6147SOL    HW119882   0.216   4.196   1.548  1.3995  0.2556  1.5575
 6147SOL    HW219883   0.328   4.115   1.486 -0.0084 -0.5819  0.0006
 6148SOL     OW19884   4.169   1.746   2.936 -0.0533 -0.0457  0.1369
 6148SOL    HW119885   4.086   1.724   2.894 -2.6027  1.2844  4.0287
 6148SOL    HW219886   4.189   1.835   2.905 -0.0409 -0.3529 -0.7691
 6149SOL     OW19887   4.671   0.999   7.166 -0.3044  0.0986 -0.6031
 6149SOL    HW119888   4.585   0.958   7.158 -0.1364 -0.6380  0.9480
 6149SOL    HW219889   4.686   1.040   7.081 -2.7101  1.2921 -0.5373
 6150SOL     OW19890   1.324   4.671   0.678 -0.8047  0.1396  0.3821
 6150SOL    HW119891   1.302   4.757   0.641 -2.1624  0.1979  1.2619
 6150SOL    HW219892   1.403   4.687   0.729  1.1431  0.0611 -2.3740
 6151SOL     OW19893   3.636   1.239   6.303  0.3931 -0.6994 -0.1899
 6151SOL    HW119894   3.584   1.159   6.295  1.3333 -1.3493 -0.0248
 6151SOL    HW219895   3.725   1.208   6.319  0.7932  0.3869 -0.2155
 6152SOL     OW19896   0.937   7.641  11.455  0.0804  0.0897 -0.2578
 6152SOL    HW119897   0.941   7.730  11.490  0.9709 -0.1237  0.2259
 6152SOL    HW219898   0.867   7.643  11.390 -0.2596  1.0055  0.1318
 6153SOL     OW19899   4.576   4.850   5.692  0.9244  0.1260  0.1569
 6153SOL    HW119900   4.481   4.860   5.691  0.5906 -2.0631  1.9519
 6153SOL    HW219901   4.599   4.827   5.602 -0.2469  0.5061 -0.2561
 6154SOL     OW19902   7.172   3.738   3.503  0.0792 -0.1861 -0.8354
 6154SOL    HW119903   7.078   3.752   3.507 -0.0884 -1.1172 -1.1329
 6154SOL    HW219904   7.209   3.825   3.491 -0.8044  0.0950 -1.6636
 6155SOL     OW19905   7.018   3.922   2.599  0.6662 -0.1656  0.0310
 6155SOL    HW119906   6.994   3.982   2.671  3.1666  0.3266  0.5348
 6155SOL    HW219907   7.000   3.973   2.520  2.0206  1.0257  0.4401
 6156SOL     OW19908   5.628   2.337   8.763  0.4265 -0.0814  0.2951
 6156SOL    HW119909   5.614   2.407   8.827  0.4908  1.3929 -1.2318
 6156SOL    HW219910   5.709   2.362   8.718 -0.1525 -0.5257 -1.0412
 6157SOL     OW19911   5.967   4.608   6.535 -0.2940  0.3282  0.1671
 6157SOL    HW119912   5.961   4.598   6.630  1.3866  1.4591  0.4518
 6157SOL    HW219913   6.049   4.564   6.512  0.5178  2.0189 -0.3771
 6158SOL     OW19914   4.373   7.428   8.955 -0.2293 -0.2740 -0.0171
 6158SOL    HW119915   4.436   7.490   8.991  0.4494 -0.4681 -0.8569
 6158SOL    HW219916   4.416   7.391   8.878 -0.7205 -1.6061  0.3252
 6159SOL     OW19917   2.699   4.516   0.172  0.2035  0.0683 -0.7634
 6159SOL    HW119918   2.761   4.499   0.244 -1.0787  0.4865  0.4924
 6159SOL    HW219919   2.698   4.612   0.164  0.3000  0.0258 -1.3101
 6160SOL     OW19920   0.159   2.612   5.203 -0.1120  0.0549  0.1117
 6160SOL    HW119921   0.200   2.681   5.150  0.0296 -0.1359 -0.0271
 6160SOL    HW219922   0.200   2.531   5.173  0.3187 -0.0088  0.8463
 6161SOL     OW19923   6.088   7.026   3.224 -0.2583 -0.0427 -0.0082
 6161SOL    HW119924   6.048   6.969   3.158  0.8865 -1.7256  0.6643
 6161SOL    HW219925   6.165   6.977   3.254 -0.2897  1.0349  1.9860
 6162SOL     OW19926   0.939   2.837  11.808  0.0746  0.3962 -0.3534
 6162SOL    HW119927   0.911   2.782  11.881  0.1368  0.9047  0.0597
 6162SOL    HW219928   0.862   2.890  11.786  0.5100  1.3769  0.3985
 6163SOL     OW19929   0.738   1.020   4.138 -0.5330 -0.2319  0.4085
 6163SOL    HW119930   0.709   0.929   4.144 -1.0511 -0.0520  0.6991
 6163SOL    HW219931   0.834   1.015   4.139 -0.4792 -0.9240 -1.8020
 6164SOL     OW19932   3.893   2.553   7.270 -0.1635 -0.5476 -0.5788
 6164SOL    HW119933   3.806   2.566   7.232 -0.6796  0.6109  0.9164
 6164SOL    HW219934   3.891   2.463   7.304 -1.5398  0.0919  1.2112
 6165SOL     OW19935   7.917   3.697   2.075  0.1118 -0.0875  0.0754
 6165SOL    HW119936   7.996   3.713   2.127 -0.7231  0.2136  1.2810
 6165SOL    HW219937   7.885   3.784   2.052 -0.0418 -0.2039 -0.1590
 6166SOL     OW19938   3.606   4.964   4.803 -0.0929  0.1189 -0.5772
 6166SOL    HW119939   3.617   4.869   4.809 -0.8068  0.0607 -0.0459
 6166SOL    HW219940   3.542   4.977   4.733 -1.4048  0.0873  0.5746
 6167SOL     OW19941   0.489   2.278   6.558  0.0036  0.2251 -0.2231
 6167SOL    HW119942   0.503   2.283   6.653  1.4439 -0.1792 -0.3954
 6167SOL    HW219943   0.509   2.188   6.536 -1.1539  0.0992 -0.8062
 6168SOL     OW19944   2.127   5.637   0.750 -0.4660 -0.1890  0.0350
 6168SOL    HW119945   2.090   5.704   0.808 -0.7848  1.4325 -1.9299
 6168SOL    HW219946   2.206   5.607   0.795  0.3288  2.3412  0.4860
 6169SOL     OW19947   0.040   6.770  10.945 -0.3006  0.4897  0.4361
 6169SOL    HW119948  -0.019   6.733  11.010  0.1798 -0.4965  0.3289
 6169SOL    HW219949   0.071   6.852  10.984 -1.4694  0.8572  0.6291
 6170SOL     OW19950   2.127   6.673   6.033 -0.2250  0.8911 -0.0504
 6170SOL    HW119951   2.148   6.762   6.004 -1.6485  1.1472 -0.3379
 6170SOL    HW219952   2.205   6.645   6.081  0.7352  1.8248 -1.0046
 6171SOL     OW19953   5.616   1.131  10.092 -0.2958  0.6463  0.3253
 6171SOL    HW119954   5.612   1.182  10.010 -1.6579 -0.5594 -0.4039
 6171SOL    HW219955   5.709   1.131  10.115  0.1867  0.7555 -1.4165
 6172SOL     OW19956   5.325   0.551   9.671  0.1443  0.5250  0.1654
 6172SOL    HW119957   5.349   0.459   9.681  1.0281  0.4490 -2.0412
 6172SOL    HW219958   5.387   0.585   9.607  0.3200  2.8815  1.4649
 6173SOL     OW19959   0.735   4.317   0.977  0.2161  0.0652 -0.3420
 6173SOL    HW119960   0.660   4.363   1.016  0.2184 -0.7474  0.6734
 6173SOL    HW219961   0.696   4.239   0.938  0.3941  0.2053 -0.7968
 6174SOL     OW19962   2.854   7.804   3.554 -0.0089 -0.8117 -0.1945
 6174SOL    HW119963   2.818   7.879   3.602  1.7898 -0.2969  0.4224
 6174SOL    HW219964   2.863   7.735   3.620  0.2593 -0.8885 -0.3101
 6175SOL     OW19965   1.422   4.040   0.680  0.7194 -0.4598 -0.0501
 6175SOL    HW119966   1.380   4.059   0.595  0.0204 -2.7021 -0.2862
 6175SOL    HW219967   1.514   4.062   0.667  0.1433  2.0215 -0.4054
 6176SOL     OW19968   0.666   7.479   7.899 -0.2165  0.0679  0.5724
 6176SOL    HW119969   0.636   7.564   7.932 -0.1790  0.3009  0.0242
 6176SOL    HW219970   0.667   7.422   7.976  0.6855  0.8120  1.1258
 6177SOL     OW19971   0.081   2.245  12.068  0.0508  0.1020  0.3274
 6177SOL    HW119972   0.023   2.305  12.114  0.9083 -0.0434  1.6438
 6177SOL    HW219973   0.154   2.300  12.038  0.2550 -0.0747  0.4958
 6178SOL     OW19974   4.961   0.118   5.175 -0.3427 -0.1528  0.2138
 6178SOL    HW119975   5.050   0.085   5.163 -0.4189 -0.6329  0.9050
 6178SOL    HW219976   4.915   0.093   5.095  0.4525  1.2144 -0.7110
 6179SOL     OW19977   1.359   4.558   6.804  0.5673 -0.4599 -0.0942
 6179SOL    HW119978   1.377   4.508   6.884 -2.2495 -0.4292  0.6606
 6179SOL    HW219979   1.378   4.497   6.733 -2.0750 -2.4998  0.7954
 6180SOL     OW19980   2.177   4.486  10.438 -0.4760  0.4960  0.3443
 6180SOL    HW119981   2.195   4.532  10.519  0.0060  0.8238  0.0555
 6180SOL    HW219982   2.187   4.393  10.460 -0.9145  0.5496  0.7909
 6181SOL     OW19983   0.052   3.642   4.166 -0.4449  0.1127  0.1601
 6181SOL    HW119984   0.000   3.609   4.239 -0.1822  0.5348  0.5463
 6181SOL    HW219985   0.000   3.621   4.088 -0.3445 -1.0629  0.3985
 6182SOL     OW19986   1.939   0.378  11.441 -0.5470 -0.2839  0.1510
 6182SOL    HW119987   2.031   0.353  11.425 -0.6653 -0.0525 -0.9237
 6182SOL    HW219988   1.944   0.468  11.471 -0.4347 -0.2037 -0.1047
 6183SOL     OW19989   3.128   0.129   8.838  0.2112  0.4459 -0.5170
 6183SOL    HW119990   3.176   0.046   8.846 -1.3892 -0.5322 -0.7652
 6183SOL    HW219991   3.183   0.192   8.885  0.8209 -1.0252  0.8585
 6184SOL     OW19992   4.893   4.562   1.702 -0.0446  0.4010  0.5993
 6184SOL    HW119993   4.963   4.628   1.704 -0.8986  1.3223  0.9797
 6184SOL    HW219994   4.839   4.587   1.627  0.8862 -1.2458 -0.6797
 6185SOL     OW19995   1.004   5.578   2.482  0.0133 -0.0911  0.1552
 6185SOL    HW119996   1.079   5.519   2.479  0.5333  0.5288  0.5823
 6185SOL    HW219997   0.929   5.525   2.454  0.5956 -0.7397 -0.1870
 6186SOL     OW19998   0.495   0.622   3.027  0.0450 -0.7751 -0.3059
 6186SOL    HW119999   0.456   0.534   3.026  0.4249 -1.0069  1.3617
 6186SOL    HW220000   0.589   0.607   3.016  0.1746 -0.6395  0.5669
 6187SOL     OW20001   7.627   6.462   4.816 -0.0905  0.4237  0.5317
 6187SOL    HW120002   7.578   6.441   4.737 -0.0892  2.5422 -0.0893
 6187SOL    HW220003   7.701   6.515   4.786  1.0977 -0.4346  1.7586
 6188SOL     OW20004   5.435   5.486  11.086 -0.6217 -0.4078 -0.1456
 6188SOL    HW120005   5.499   5.465  11.018  0.6124 -0.1257  0.8831
 6188SOL    HW220006   5.434   5.582  11.088 -2.1595 -0.3845 -1.1225
 6189SOL     OW20007   7.874   0.123   8.143 -0.4288  0.0231  0.3732
 6189SOL    HW120008   7.811   0.073   8.090  0.2250  0.5078 -0.9084
 6189SOL    HW220009   7.862   0.090   8.232 -0.7553 -1.6670 -0.2575
 6190SOL     OW20010   5.406   7.486   5.478  0.7425  0.4099  0.1099
 6190SOL    HW120011   5.501   7.472   5.477  1.0716  1.5754  3.2656
 6190SOL    HW220012   5.369   7.399   5.465  2.3970 -0.9554  3.3143
 6191SOL     OW20013   5.537   5.499   8.527  0.0984  0.2127  0.2328
 6191SOL    HW120014   5.620   5.540   8.501 -0.7429  0.6617 -1.9758
 6191SOL    HW220015   5.545   5.408   8.499 -0.0858  0.2253  0.1341
 6192SOL     OW20016   0.151   4.326   9.859 -0.2002  0.1259  0.1617
 6192SOL    HW120017   0.176   4.395   9.798  0.5202 -0.4699 -0.2394
 6192SOL    HW220018   0.184   4.355   9.944  0.1908  0.2303 -0.0246
 6193SOL     OW20019   1.770   4.963   2.238 -0.4379  0.6804 -0.4739
 6193SOL    HW120020   1.695   4.940   2.182 -1.2559  1.1624  0.3954
 6193SOL    HW220021   1.733   5.021   2.304  0.2529 -0.7159  1.2303
 6194SOL     OW20022   5.998   7.224   7.669  0.3394  0.9612 -0.1656
 6194SOL    HW120023   5.971   7.293   7.607  0.5739  1.3538  0.1601
 6194SOL    HW220024   5.973   7.142   7.627 -1.7215  1.3148  0.2838
 6195SOL     OW20025   6.153   2.660   8.956 -0.0896  0.1109 -0.0752
 6195SOL    HW120026   6.205   2.658   9.036  1.8873 -1.6009 -1.2887
 6195SOL    HW220027   6.062   2.648   8.985  0.5984 -0.7175  1.8964
 6196SOL     OW20028   5.060   3.632   0.302 -0.1393 -0.1432 -0.2188
 6196SOL    HW120029   4.975   3.629   0.346 -0.0713  0.1693 -0.0675
 6196SOL    HW220030   5.043   3.595   0.215 -0.6851  1.0095 -0.6124
 6197SOL     OW20031   6.490   3.231   4.690  0.1487  0.0533 -0.6422
 6197SOL    HW120032   6.567   3.183   4.722 -0.1117 -0.8985 -1.3692
 6197SOL    HW220033   6.515   3.260   4.602 -0.2510 -0.1315 -0.8231
 6198SOL     OW20034   2.815   2.783  10.059  0.3385 -0.1938  0.2459
 6198SOL    HW120035   2.861   2.704  10.031 -1.0060 -0.7648 -0.4534
 6198SOL    HW220036   2.757   2.804   9.986 -2.1170 -0.7844  1.8957
 6199SOL     OW20037   4.110   3.534  10.904 -0.1319 -0.0008  0.4771
 6199SOL    HW120038   4.165   3.564  10.831 -0.3746  0.7959  0.6117
 6199SOL    HW220039   4.139   3.444  10.920  0.5317  0.1127 -0.0218
 6200SOL     OW20040   4.142   6.703   7.084 -0.1865  0.3933  0.0305
 6200SOL    HW120041   4.088   6.705   7.005 -1.1929 -0.2392  0.6762
 6200SOL    HW220042   4.090   6.653   7.147  1.5136 -0.9859  0.4233
 6201SOL     OW20043   4.170   2.427   1.240 -0.4590  0.1496 -0.2912
 6201SOL    HW120044   4.136   2.403   1.154 -1.5012 -0.4332  0.2679
 6201SOL    HW220045   4.149   2.520   1.250 -0.9728  0.0398 -0.3720
 6202SOL     OW20046   1.082   2.934   1.089  0.0038  0.2470 -0.5046
 6202SOL    HW120047   1.162   2.960   1.043 -1.0552 -0.1311 -2.6447
 6202SOL    HW220048   1.078   2.994   1.164  1.9137  0.7319 -0.7285
 6203SOL     OW20049   5.528   0.703   3.201 -0.1436 -0.2975 -0.6782
 6203SOL    HW120050   5.565   0.616   3.220  1.2928  0.8190  2.2088
 6203SOL    HW220051   5.602   0.753   3.167  0.3989  1.0680  2.2073
 6204SOL     OW20052   6.275   6.256   7.336  0.1775 -0.1864 -0.4882
 6204SOL    HW120053   6.239   6.182   7.289  0.4769 -2.1511  2.1318
 6204SOL    HW220054   6.358   6.223   7.372  0.3812  1.4602  0.6553
 6205SOL     OW20055   6.579   3.572   5.622  0.0674  0.7577 -0.4028
 6205SOL    HW120056   6.671   3.598   5.615  0.0490  0.9537  0.0701
 6205SOL    HW220057   6.550   3.562   5.531  1.4349 -2.4664 -0.6078
 6206SOL     OW20058   7.726   7.892   3.367  0.1319  0.3822 -0.4635
 6206SOL    HW120059   7.733   7.797   3.368  0.5607  0.3819 -1.5227
 6206SOL    HW220060   7.749   7.919   3.456 -1.4250 -0.5708  0.2582
 6207SOL     OW20061   1.481   6.603   2.968  0.8228  0.3538  0.2706
 6207SOL    HW120062   1.408   6.597   3.030  1.4153 -0.2066  0.9303
 6207SOL    HW220063   1.459   6.679   2.913  1.0014  1.8211  2.1126
 6208SOL     OW20064   3.244   3.325  10.815  0.2081 -0.0238 -0.6802
 6208SOL    HW120065   3.305   3.324  10.741 -0.0946 -0.6470 -0.9245
 6208SOL    HW220066   3.187   3.250  10.801 -1.1501  1.0056 -0.8864
 6209SOL     OW20067   7.441   5.251  11.984 -0.1783 -0.1009 -0.1438
 6209SOL    HW120068   7.352   5.220  11.968 -0.4805  0.4238  0.4908
 6209SOL    HW220069   7.437   5.294  12.069  0.7629 -0.3787  0.0541
 6210SOL     OW20070   1.324   3.953   4.053 -0.5860 -0.2223  0.5353
 6210SOL    HW120071   1.289   4.027   4.102 -3.2741 -0.7409 -0.4396
 6210SOL    HW220072   1.271   3.948   3.973  1.5000 -1.3809 -0.9184
 6211SOL     OW20073   4.244   1.916   7.532 -0.1037  0.6219 -0.2732
 6211SOL    HW120074   4.297   1.938   7.456 -0.9029  2.2036 -0.4200
 6211SOL    HW220075   4.305   1.919   7.606  0.0774  2.3046 -0.4520
 6212SOL     OW20076   6.234   1.181  12.371 -0.0501 -0.1213  0.8598
 6212SOL    HW120077   6.217   1.238  12.446  3.6367  0.7609  1.2328
 6212SOL    HW220078   6.148   1.166  12.331 -1.7002  2.1324  3.2749
 6213SOL     OW20079   1.315   6.028   8.139  0.1025 -0.1639 -0.4015
 6213SOL    HW120080   1.348   5.946   8.176  1.4973  0.6464  0.2355
 6213SOL    HW220081   1.359   6.035   8.054  1.3621  0.7266  0.2824
 6214SOL     OW20082   6.191   3.654   4.550  0.4674 -0.6625 -0.1012
 6214SOL    HW120083   6.131   3.717   4.590  2.1911 -0.0358  1.6924
 6214SOL    HW220084   6.188   3.674   4.457  0.4791  1.6883  0.3428
 6215SOL     OW20085   6.428   3.997   8.016 -0.0396  0.3791  0.1445
 6215SOL    HW120086   6.396   4.036   8.097 -0.5881  1.6471 -0.6558
 6215SOL    HW220087   6.350   3.961   7.974  0.2682 -0.4359  0.2408
 6216SOL     OW20088   6.928   3.602   6.923 -0.1948  0.3338 -0.0458
 6216SOL    HW120089   6.929   3.678   6.982 -0.8885  1.3979 -1.3484
 6216SOL    HW220090   6.842   3.604   6.882  0.0673 -0.6934 -0.6853
 6217SOL     OW20091   2.641   7.767   3.931 -0.5585 -0.4054 -0.1972
 6217SOL    HW120092   2.632   7.680   3.968 -1.1033 -1.4298 -2.5860
 6217SOL    HW220093   2.555   7.788   3.895  0.1208  0.1045 -1.6479
 6218SOL     OW20094   3.871   5.112   7.568 -0.3838  0.1776  0.9503
 6218SOL    HW120095   3.921   5.079   7.493  0.7124 -1.0505  2.1882
 6218SOL    HW220096   3.859   5.205   7.548 -0.2909 -0.1450 -0.8362
 6219SOL     OW20097   0.474   3.914   8.256  0.0786 -0.2946 -0.4426
 6219SOL    HW120098   0.530   3.889   8.329  0.3733 -0.1364 -0.6146
 6219SOL    HW220099   0.430   3.994   8.286 -2.2026 -1.8794  0.8190
 6220SOL     OW20100   1.946   6.295   9.770 -0.1022  0.1154 -0.0728
 6220SOL    HW120101   1.979   6.241   9.698 -0.6013 -0.6614  0.2602
 6220SOL    HW220102   1.927   6.380   9.731 -0.8705 -0.4622 -0.9833
 6221SOL     OW20103   7.192   7.747   2.686  0.7143 -0.0695  0.2151
 6221SOL    HW120104   7.198   7.742   2.781 -0.9901  1.0673  0.4406
 6221SOL    HW220105   7.227   7.834   2.664 -0.3102  0.3037 -0.0054
 6222SOL     OW20106   7.111   7.348   2.217 -0.6935  0.2964  0.0654
 6222SOL    HW120107   7.139   7.260   2.243  0.0601  1.4256  3.6414
 6222SOL    HW220108   7.020   7.337   2.189 -0.7841 -1.5415  0.9312
 6223SOL     OW20109   7.641   3.049   7.312 -0.1047  0.2004 -0.3630
 6223SOL    HW120110   7.636   3.130   7.363  0.6167  1.3164 -1.9898
 6223SOL    HW220111   7.721   3.058   7.261  0.8727 -2.2968  0.5966
 6224SOL     OW20112   2.450   6.700   1.400 -0.2888  0.3165  0.2361
 6224SOL    HW120113   2.536   6.704   1.443  0.6072 -1.0794 -1.3326
 6224SOL    HW220114   2.398   6.643   1.457  0.1835  0.2536  0.6150
 6225SOL     OW20115   3.088   6.180   6.357  0.2283 -0.2512  0.1335
 6225SOL    HW120116   3.152   6.183   6.287 -0.5431  1.7960 -0.5488
 6225SOL    HW220117   3.138   6.204   6.436  0.6785 -0.5763 -0.0472
 6226SOL     OW20118   4.652   0.088   9.491  0.0670  0.0697 -0.4244
 6226SOL    HW120119   4.644   0.171   9.445  1.6720  0.6999  0.3617
 6226SOL    HW220120   4.744   0.084   9.519 -0.2042 -1.5220  0.3825
 6227SOL     OW20121   0.827   1.777  12.127  0.4399 -0.4126 -0.4354
 6227SOL    HW120122   0.821   1.860  12.080  0.5064 -1.0960 -1.6973
 6227SOL    HW220123   0.751   1.727  12.097 -1.1430  0.1236  2.3018
 6228SOL     OW20124   2.709   0.785   9.211 -0.3904 -0.3314  0.4982
 6228SOL    HW120125   2.627   0.814   9.171 -0.7425 -1.3441  0.4526
 6228SOL    HW220126   2.746   0.724   9.148  1.0134  1.0046 -0.0163
 6229SOL     OW20127   3.133   3.607   2.150  0.8968  0.1913  0.2159
 6229SOL    HW120128   3.173   3.523   2.169 -1.2034 -0.4323  2.4258
 6229SOL    HW220129   3.046   3.584   2.116  0.1205  1.4309  1.2832
 6230SOL     OW20130   0.112   6.789   1.586 -0.0830 -0.1350 -0.4058
 6230SOL    HW120131   0.101   6.749   1.673 -0.1802 -0.3178 -0.5022
 6230SOL    HW220132   0.125   6.715   1.527 -0.6011 -0.0474 -0.6367
 6231SOL     OW20133   7.653   4.322   3.389 -0.1869 -0.0440  0.1695
 6231SOL    HW120134   7.564   4.305   3.358 -0.3880 -1.0797  1.2482
 6231SOL    HW220135   7.652   4.413   3.416 -0.4779  0.3987 -1.2250
 6232SOL     OW20136   7.196   0.678   2.962 -0.0259 -0.2865 -0.2501
 6232SOL    HW120137   7.165   0.741   3.026  0.6897  0.3816 -0.5418
 6232SOL    HW220138   7.171   0.593   2.998 -1.1669  0.1658  0.0519
 6233SOL     OW20139   6.527   6.728   1.231  0.4000 -0.9367 -0.6481
 6233SOL    HW120140   6.464   6.658   1.218  0.9227 -2.0603  2.1783
 6233SOL    HW220141   6.474   6.807   1.246 -0.3222 -1.5315  0.0240
 6234SOL     OW20142   2.826   7.452  11.569 -0.1489 -0.0715  0.2688
 6234SOL    HW120143   2.821   7.358  11.583 -1.6452 -0.1175 -0.3714
 6234SOL    HW220144   2.853   7.461  11.478  1.9881  0.1645  0.8801
 6235SOL     OW20145   2.310   2.399  11.107  0.8812 -0.5156  0.2724
 6235SOL    HW120146   2.386   2.455  11.090  0.7273 -0.1735  0.6986
 6235SOL    HW220147   2.269   2.389  11.021  1.2865 -0.5250  0.0757
 6236SOL     OW20148   2.742   5.421  10.800  0.4256  0.2691 -0.2886
 6236SOL    HW120149   2.665   5.367  10.780  0.5263 -0.4686  1.1932
 6236SOL    HW220150   2.707   5.495  10.850  0.6125  0.2658 -0.1547
 6237SOL     OW20151   1.163   1.331   5.851  0.0377  0.1198 -0.6114
 6237SOL    HW120152   1.179   1.253   5.904 -2.6597 -0.2739 -0.2301
 6237SOL    HW220153   1.235   1.333   5.789  0.6908 -2.1458 -0.0227
 6238SOL     OW20154   3.445   3.120   9.092 -0.0747 -0.2549 -0.0483
 6238SOL    HW120155   3.472   3.103   9.182 -1.8699  0.0992  0.6088
 6238SOL    HW220156   3.526   3.139   9.045  0.9423 -0.9529  1.3735
 6239SOL     OW20157   5.593   2.368   8.231  0.4431 -0.1288 -0.2557
 6239SOL    HW120158   5.529   2.354   8.301  0.8336  0.9590  0.3391
 6239SOL    HW220159   5.615   2.280   8.201 -0.2011 -0.5828  0.5598
 6240SOL     OW20160   1.404   0.522   2.213 -0.3049 -0.1778  0.2585
 6240SOL    HW120161   1.394   0.603   2.163  0.0826  0.4213  1.1316
 6240SOL    HW220162   1.317   0.482   2.209 -1.2116  1.4809  1.8241
 6241SOL     OW20163   5.626   2.139   9.630  0.6292  0.2056 -0.8527
 6241SOL    HW120164   5.713   2.161   9.665  0.3585 -0.1514  0.0517
 6241SOL    HW220165   5.597   2.064   9.681 -0.4115  0.5950 -0.8463
 6242SOL     OW20166   7.088   6.197   7.522 -0.3450 -0.0002  0.3498
 6242SOL    HW120167   7.114   6.288   7.514 -1.0977  0.1303 -0.7671
 6242SOL    HW220168   7.001   6.199   7.561 -1.1127 -0.1200 -1.2674
 6243SOL     OW20169   6.150   7.432  11.722  0.1413 -0.1228 -0.3709
 6243SOL    HW120170   6.063   7.393  11.719  0.6149 -1.3386  0.7603
 6243SOL    HW220171   6.204   7.366  11.765  1.1252  1.5318  1.0647
 6244SOL     OW20172   2.141   2.112   9.840  0.4083 -0.3225  0.4292
 6244SOL    HW120173   2.230   2.145   9.846 -0.1014  1.2671 -0.1773
 6244SOL    HW220174   2.128   2.095   9.746 -0.5747  1.5055  0.1789
 6245SOL     OW20175   6.976   4.822   9.335  0.1167  0.4831  0.5356
 6245SOL    HW120176   7.027   4.742   9.322 -0.5498  0.5053 -3.2538
 6245SOL    HW220177   7.035   4.881   9.381  3.3418  0.1532 -2.7313
 6246SOL     OW20178   7.474   6.256   5.237 -0.5148  0.2338  0.1521
 6246SOL    HW120179   7.485   6.244   5.143  0.7971  0.8994  0.1927
 6246SOL    HW220180   7.560   6.236   5.274 -0.3932  2.0346  0.9624
 6247SOL     OW20181   4.508   1.134   8.163 -0.3829 -0.0888 -0.7067
 6247SOL    HW120182   4.456   1.164   8.237  0.9531  1.7642 -0.4492
 6247SOL    HW220183   4.467   1.174   8.087 -1.1828 -1.2151 -0.8899
 6248SOL     OW20184   5.341   2.065   2.062  0.4054 -0.7055  0.3017
 6248SOL    HW120185   5.275   2.007   2.101  0.1049  0.4214  1.5351
 6248SOL    HW220186   5.324   2.150   2.101  0.8949  0.2193 -1.4129
 6249SOL     OW20187   3.740   0.952   4.718 -0.3463  0.5965  0.0405
 6249SOL    HW120188   3.669   0.907   4.672  0.8614 -1.3746 -0.0241
 6249SOL    HW220189   3.754   0.900   4.797  2.5650 -0.5715 -1.1060
 6250SOL     OW20190   1.657   4.260   2.840 -0.1290 -0.1251 -0.2763
 6250SOL    HW120191   1.664   4.337   2.784  0.9711  0.4741  0.6400
 6250SOL    HW220192   1.742   4.216   2.830 -0.5283 -0.8957 -0.3262
 6251SOL     OW20193   7.475   4.998   7.518  0.3926  0.0821  0.3650
 6251SOL    HW120194   7.486   5.054   7.595 -0.7036 -1.4813  1.7422
 6251SOL    HW220195   7.387   5.018   7.486 -0.8248 -2.1325  2.0675
 6252SOL     OW20196   1.368   1.607   0.864  0.1181  0.1449 -0.0542
 6252SOL    HW120197   1.296   1.631   0.922  0.7811  1.8894  0.0979
 6252SOL    HW220198   1.447   1.628   0.913  0.7267 -0.5634 -0.6993
 6253SOL     OW20199   1.039   5.755   7.749 -0.4873  0.3706  0.4690
 6253SOL    HW120200   1.039   5.673   7.798  0.4990 -0.9658 -1.6287
 6253SOL    HW220201   1.128   5.764   7.715 -1.4296  0.3669 -2.3118
 6254SOL     OW20202   7.704   2.556  10.008 -0.3432 -0.4119  0.6112
 6254SOL    HW120203   7.705   2.465   9.981  0.5217 -0.0320 -0.7535
 6254SOL    HW220204   7.785   2.593   9.972 -1.0451  1.0696  0.4561
 6255SOL     OW20205   1.809   1.056  11.275  0.1766 -0.4737 -0.0730
 6255SOL    HW120206   1.777   1.122  11.335  0.4791 -0.9986  0.6858
 6255SOL    HW220207   1.733   1.032  11.223 -0.5445 -1.2634  1.2875
 6256SOL     OW20208   2.014   6.721   2.098  0.0115 -0.2237  0.0648
 6256SOL    HW120209   2.067   6.788   2.055 -0.8739  0.5283  0.1088
 6256SOL    HW220210   2.037   6.728   2.191 -0.8036  0.7144  0.2066
 6257SOL     OW20211   2.426   3.346   6.542  0.8370 -0.2015  0.0629
 6257SOL    HW120212   2.434   3.292   6.621 -0.3073 -0.8316 -0.2385
 6257SOL    HW220213   2.368   3.417   6.566  1.9803  0.6834  0.3206
 6258SOL     OW20214   6.520   2.542   0.750 -0.1049 -0.5952 -0.0431
 6258SOL    HW120215   6.525   2.476   0.820  0.3641 -1.2965 -0.7227
 6258SOL    HW220216   6.536   2.493   0.670  0.7297  0.4354 -0.5248
 6259SOL     OW20217   6.591   1.854   1.280 -0.4282  0.4478 -0.7157
 6259SOL    HW120218   6.655   1.883   1.216  1.0571  0.6106  0.7563
 6259SOL    HW220219   6.569   1.765   1.254  2.1109 -0.4532 -0.0924
 6260SOL     OW20220   1.973   5.320   2.837  0.0471 -0.4490 -0.5922
 6260SOL    HW120221   1.971   5.394   2.777  2.0199 -0.9748 -1.3798
 6260SOL    HW220222   1.986   5.360   2.924 -1.9998  0.2598 -0.5556
 6261SOL     OW20223   0.197   2.480  10.829 -0.3301  0.2234 -0.4075
 6261SOL    HW120224   0.268   2.455  10.887 -0.0060 -1.7174 -1.5719
 6261SOL    HW220225   0.231   2.467  10.741 -0.5333  3.8472 -1.1999
 6262SOL     OW20226   1.198   1.587   8.049 -0.2534  0.0518  0.0146
 6262SOL    HW120227   1.186   1.668   8.099  0.4471  0.9259 -1.2003
 6262SOL    HW220228   1.284   1.555   8.076 -1.2359 -1.2598  1.7911
 6263SOL     OW20229   6.659   7.761   2.128 -0.1167 -0.2733  0.6011
 6263SOL    HW120230   6.704   7.707   2.062 -1.0072 -0.1279 -0.1483
 6263SOL    HW220231   6.728   7.818   2.162  0.2094  0.2364 -0.8191
 6264SOL     OW20232   5.947   4.745   0.032 -0.2674  0.4277  0.0235
 6264SOL    HW120233   5.941   4.651   0.015  0.8010  0.4465 -0.5416
 6264SOL    HW220234   5.923   4.786  -0.051  1.6761  0.5832 -0.5139
 6265SOL     OW20235   2.599   7.396   3.829 -0.0251 -0.2608 -0.2436
 6265SOL    HW120236   2.606   7.309   3.867 -0.2633 -1.1182 -2.0579
 6265SOL    HW220237   2.514   7.395   3.783 -0.6311  1.3794  0.7670
 6266SOL     OW20238   7.196   1.353   7.950  0.1241  0.0092  0.0855
 6266SOL    HW120239   7.156   1.285   8.005  2.6271  0.9788  3.3964
 6266SOL    HW220240   7.161   1.435   7.985  0.5075  0.6323 -0.9488
 6267SOL     OW20241   0.729   2.077   1.102  0.1857  0.0133 -0.3898
 6267SOL    HW120242   0.718   2.058   1.195 -0.1563  0.7716 -0.2660
 6267SOL    HW220243   0.751   1.993   1.063  0.9333 -0.2016  0.4647
 6268SOL     OW20244   7.695   7.786   1.655  0.0720  0.0527  0.6719
 6268SOL    HW120245   7.730   7.715   1.708 -0.0641  0.1520  0.8939
 6268SOL    HW220246   7.704   7.755   1.565 -0.7378 -0.5857  0.8075
 6269SOL     OW20247   5.804   5.266   5.141 -0.1325 -0.0164 -0.1594
 6269SOL    HW120248   5.846   5.269   5.055  0.5638 -2.4160  0.0242
 6269SOL    HW220249   5.817   5.354   5.178  0.1759  0.8368 -2.1918
 6270SOL     OW20250   6.502   0.560   2.575 -0.1758  0.9164  0.1854
 6270SOL    HW120251   6.584   0.604   2.593 -0.3423  1.4409 -0.3007
 6270SOL    HW220252   6.437   0.608   2.626 -0.6178  2.2902 -1.5693
 6271SOL     OW20253   0.583   1.283   9.105  0.4233  0.2063  0.2379
 6271SOL    HW120254   0.491   1.290   9.077  0.0573  1.2813  1.6150
 6271SOL    HW220255   0.602   1.189   9.098 -0.4092  0.0994 -1.1263
 6272SOL     OW20256   6.332   3.625   8.147  0.3970  0.3183 -1.0854
 6272SOL    HW120257   6.248   3.580   8.141  0.7012 -0.2659 -1.0320
 6272SOL    HW220258   6.347   3.660   8.059 -0.2715  1.1157 -0.8948
 6273SOL     OW20259   5.956   3.157   8.872 -0.2958 -0.0009 -0.3078
 6273SOL    HW120260   6.014   3.232   8.888  0.8284 -0.5629 -1.5281
 6273SOL    HW220261   5.935   3.162   8.779  0.1647 -1.4215 -0.5242
 6274SOL     OW20262   4.419   1.257   7.369 -0.2326  0.2607 -0.1201
 6274SOL    HW120263   4.485   1.193   7.394  0.5923  0.9855 -0.3867
 6274SOL    HW220264   4.461   1.342   7.384 -0.3846  0.7347 -2.0963
 6275SOL     OW20265   6.392   1.647   8.779  0.8820  0.8040  0.2469
 6275SOL    HW120266   6.416   1.563   8.740  2.0348  1.9592 -1.7279
 6275SOL    HW220267   6.439   1.649   8.862  1.5623 -0.1563 -0.0979
 6276SOL     OW20268   0.608   7.906  12.058  0.3666  0.3194 -0.6477
 6276SOL    HW120269   0.702   7.909  12.039  0.0189 -1.6037 -3.1343
 6276SOL    HW220270   0.602   7.858  12.141  1.5613  0.5786 -0.3871
 6277SOL     OW20271   0.109   2.946   0.003 -0.4751  0.0514  0.0681
 6277SOL    HW120272   0.070   2.859   0.012  0.5438 -0.3771  0.5803
 6277SOL    HW220273   0.099   2.986   0.089 -0.3736  0.1825  0.0198
 6278SOL     OW20274   2.729   6.830  10.844  0.0437  0.3626  0.0176
 6278SOL    HW120275   2.651   6.787  10.878 -0.3417  0.6879 -0.4312
 6278SOL    HW220276   2.768   6.765  10.786  0.0570  0.2298  0.1748
 6279SOL     OW20277   1.745   1.223   4.694 -0.2844  0.7287 -0.3029
 6279SOL    HW120278   1.723   1.265   4.777 -2.7550 -0.9413 -0.0060
 6279SOL    HW220279   1.672   1.247   4.636  1.0822  1.3460 -1.8394
 6280SOL     OW20280   7.241   7.446   5.730 -0.1789 -0.0782  0.0149
 6280SOL    HW120281   7.272   7.537   5.723 -0.3073  0.0140  0.6428
 6280SOL    HW220282   7.285   7.401   5.658  0.1094  0.4204 -0.1275
 6281SOL     OW20283   6.619   0.347   3.489 -0.3170 -0.3949  0.6315
 6281SOL    HW120284   6.547   0.314   3.542 -0.6684 -0.1232  0.3379
 6281SOL    HW220285   6.636   0.434   3.524  0.9774 -1.0832  1.7642
 6282SOL     OW20286   5.133   5.078   7.518 -0.4255 -1.1565  0.1210
 6282SOL    HW120287   5.160   5.151   7.574  0.7777  0.8852 -2.8816
 6282SOL    HW220288   5.040   5.093   7.502  0.0798  0.5312 -1.4733
 6283SOL     OW20289   7.385   0.012   5.631 -0.7236  0.5969 -0.2138
 6283SOL    HW120290   7.344   0.041   5.549  0.0771  2.9645  0.1582
 6283SOL    HW220291   7.397  -0.082   5.619 -1.8189  0.6509 -2.2794
 6284SOL     OW20292   7.451   2.034  11.011  0.7771  0.0178  0.0871
 6284SOL    HW120293   7.471   1.978  11.087 -2.4727 -2.2137 -0.5020
 6284SOL    HW220294   7.392   2.101  11.046  1.4805  0.6994  0.0038
 6285SOL     OW20295   5.082   2.481   1.286 -0.1066 -0.4046  0.0533
 6285SOL    HW120296   4.994   2.452   1.308  0.6004 -1.2206  2.0839
 6285SOL    HW220297   5.070   2.553   1.225 -2.2265  0.2056  1.1030
 6286SOL     OW20298   6.544   0.916   0.558  0.0108 -0.4636  0.3839
 6286SOL    HW120299   6.516   0.928   0.468  0.2499 -1.1044  0.2208
 6286SOL    HW220300   6.536   0.822   0.574  1.5171 -0.6042  0.5087
 6287SOL     OW20301   6.279   0.275   3.306  0.2491 -0.2827  0.3177
 6287SOL    HW120302   6.187   0.258   3.288  0.3534  0.7308 -1.3346
 6287SOL    HW220303   6.326   0.210   3.254  0.4777 -0.2142  0.4371
 6288SOL     OW20304   5.127   1.238   0.523 -0.0604  0.0757  0.2974
 6288SOL    HW120305   5.106   1.279   0.607  2.2240 -0.0707  1.0234
 6288SOL    HW220306   5.076   1.157   0.521  0.3229 -0.2334  1.8675
 6289SOL     OW20307   0.357   4.771   1.839 -0.0209 -0.4998  0.3454
 6289SOL    HW120308   0.389   4.682   1.846 -0.8169 -0.7907  0.3787
 6289SOL    HW220309   0.328   4.779   1.748  1.1711  0.1168  0.0066
 6290SOL     OW20310   1.536   0.222   7.558 -0.2482  0.5967  0.4453
 6290SOL    HW120311   1.477   0.177   7.618 -0.5459 -0.0206 -0.2879
 6290SOL    HW220312   1.508   0.314   7.561  0.5988  0.8350  2.2284
 6291SOL     OW20313   3.480   5.315   4.473 -0.3076  0.1866  0.9427
 6291SOL    HW120314   3.547   5.362   4.422 -0.9350 -0.7664 -0.8401
 6291SOL    HW220315   3.398   5.337   4.430 -0.9946  0.1683  2.2158
 6292SOL     OW20316   1.889   1.725  12.247  0.0290  0.0417  0.3465
 6292SOL    HW120317   1.923   1.640  12.275  1.0157  0.7698  1.4927
 6292SOL    HW220318   1.904   1.728  12.153  0.7136 -0.7476  0.4197
 6293SOL     OW20319   7.406   7.619   2.522  0.1099  0.6371  0.1625
 6293SOL    HW120320   7.436   7.596   2.610  0.1702  0.4192  0.0849
 6293SOL    HW220321   7.312   7.634   2.531  0.1952  1.0905  0.3602
 6294SOL     OW20322   4.631   1.433  10.334  0.2164 -0.2107  0.5400
 6294SOL    HW120323   4.632   1.355  10.389 -0.6284 -0.7204 -0.1415
 6294SOL    HW220324   4.646   1.400  10.245 -1.6505  0.1911  0.0307
 6295SOL     OW20325   5.508   2.969   4.748  0.0517 -0.2949  0.3286
 6295SOL    HW120326   5.567   3.023   4.801  0.9374 -2.1780  1.3668
 6295SOL    HW220327   5.562   2.938   4.676 -0.3819 -0.0540 -0.1116
 6296SOL     OW20328   0.165   3.546   9.198 -0.3920  0.1579 -0.0977
 6296SOL    HW120329   0.197   3.527   9.286 -1.3410  0.7334  0.3884
 6296SOL    HW220330   0.184   3.638   9.184 -1.0851  0.3098 -0.1086
 6297SOL     OW20331   1.043   2.333   3.553  0.1232  0.0382  0.4222
 6297SOL    HW120332   1.125   2.345   3.504  0.8184  0.9408  1.7578
 6297SOL    HW220333   1.055   2.249   3.597 -0.2666 -0.5008 -0.4761
 6298SOL     OW20334   0.064   3.389   6.486  0.2046 -0.0437 -0.1384
 6298SOL    HW120335   0.126   3.459   6.466  0.0164 -0.1171 -1.0091
 6298SOL    HW220336   0.118   3.310   6.490  0.3852  0.1058  0.6363
 6299SOL     OW20337   5.523   5.030   9.445  0.0165  0.2278 -0.3643
 6299SOL    HW120338   5.471   5.001   9.370  0.2139 -0.0106 -0.4105
 6299SOL    HW220339   5.505   5.124   9.452  0.1288  0.2879 -0.8174
 6300SOL     OW20340   4.905   1.885   3.369 -0.0139  0.5393 -0.0513
 6300SOL    HW120341   4.931   1.889   3.461  0.3960 -0.6627 -0.1007
 6300SOL    HW220342   4.818   1.844   3.371 -0.9303  2.3755 -0.0681
 6301SOL     OW20343   3.713   1.797   0.460  0.7168  0.4050 -0.2541
 6301SOL    HW120344   3.669   1.881   0.472  1.0568  0.5342  0.1367
 6301SOL    HW220345   3.790   1.819   0.406  1.4562  0.5636  0.8404
 6302SOL     OW20346   0.447   3.159   6.044  0.1541 -0.1122 -0.3449
 6302SOL    HW120347   0.399   3.152   5.961  2.1106  0.2069 -1.5920
 6302SOL    HW220348   0.396   3.221   6.096 -0.8938  0.0335 -1.4880
 6303SOL     OW20349   1.859   0.878   6.939 -0.8897  0.1669  0.5966
 6303SOL    HW120350   1.784   0.820   6.950 -0.8943  0.3867  1.8541
 6303SOL    HW220351   1.923   0.826   6.891 -1.5041 -0.3271  0.3083
 6304SOL     OW20352   0.640   3.284   3.343 -0.5592  0.5643 -0.0043
 6304SOL    HW120353   0.664   3.367   3.302  0.4066  0.2289 -0.1607
 6304SOL    HW220354   0.723   3.249   3.375 -1.1366  0.2848  1.2550
 6305SOL     OW20355   2.027   4.219   7.650  0.2580 -0.0188 -0.1836
 6305SOL    HW120356   1.935   4.245   7.650  0.2653  0.0085 -0.2799
 6305SOL    HW220357   2.043   4.189   7.561  0.0100 -1.2222  0.1661
 6306SOL     OW20358   6.240   4.881   1.360 -0.4677 -0.0481 -0.2324
 6306SOL    HW120359   6.257   4.935   1.437 -1.0105 -2.6090  1.8010
 6306SOL    HW220360   6.326   4.847   1.335 -0.5823 -1.0555  0.7102
 6307SOL     OW20361   7.245   7.755   8.091 -0.5746  0.3609 -0.4116
 6307SOL    HW120362   7.274   7.783   8.178  0.1144 -0.5296 -0.3309
 6307SOL    HW220363   7.154   7.730   8.103 -1.4722  3.1850 -0.6579
 6308SOL     OW20364   1.326   6.032   2.662 -0.3804 -0.2667  0.2982
 6308SOL    HW120365   1.382   6.038   2.584  0.3198  2.6567  0.8816
 6308SOL    HW220366   1.271   6.111   2.657 -1.5548 -0.9478  1.8770
 6309SOL     OW20367   5.253   4.180   0.583 -0.0254  0.0244  0.2382
 6309SOL    HW120368   5.201   4.158   0.505 -0.0442  0.2504  0.1859
 6309SOL    HW220369   5.242   4.105   0.641 -0.2658 -0.0080  0.1519
 6310SOL     OW20370   1.033   4.878   7.011 -0.5818  0.7408  0.1091
 6310SOL    HW120371   1.119   4.911   7.038 -0.2168 -0.8303  0.9956
 6310SOL    HW220372   1.052   4.814   6.943 -1.3481  2.8391 -2.2564
 6311SOL     OW20373   4.463   1.097  11.201  0.0898 -0.2108 -0.1217
 6311SOL    HW120374   4.402   1.091  11.127  0.7795  0.6116 -0.7791
 6311SOL    HW220375   4.536   1.040  11.177 -0.5649 -1.4783  0.8274
 6312SOL     OW20376   4.961   4.210  11.110  0.1334 -0.1051 -0.1765
 6312SOL    HW120377   4.990   4.151  11.180  0.7095 -0.4742 -0.7164
 6312SOL    HW220378   5.035   4.270  11.098 -0.2076  0.3503 -0.0563
 6313SOL     OW20379   6.165   2.059   7.520 -0.2085 -0.3478 -0.0431
 6313SOL    HW120380   6.185   2.007   7.599  0.0733 -2.0350 -1.1815
 6313SOL    HW220381   6.070   2.068   7.520 -0.3029 -1.3100 -0.0977
 6314SOL     OW20382   7.663   1.284   3.337  0.0853  0.3691  0.0794
 6314SOL    HW120383   7.596   1.258   3.401  0.4804  0.1751  0.4226
 6314SOL    HW220384   7.724   1.210   3.335  0.3617  0.5991 -0.1245
 6315SOL     OW20385   0.769   4.710   9.815 -0.3600 -0.9290  0.0863
 6315SOL    HW120386   0.832   4.646   9.781 -0.1622 -0.5172 -0.3194
 6315SOL    HW220387   0.764   4.777   9.747 -0.1525 -0.2273  0.7610
 6316SOL     OW20388   3.916   2.262   0.552 -0.3330 -0.6180  0.6089
 6316SOL    HW120389   3.975   2.308   0.612 -1.7816  0.9129  0.9008
 6316SOL    HW220390   3.927   2.306   0.468 -0.9889 -0.3914  0.6396
 6317SOL     OW20391   3.553   2.632   4.821 -0.0830 -0.5105 -0.2002
 6317SOL    HW120392   3.548   2.678   4.738  1.2866  0.5138  0.2454
 6317SOL    HW220393   3.462   2.627   4.852 -0.4889 -0.0292 -1.2692
 6318SOL     OW20394   3.505   5.623  10.529 -0.0144 -0.1779  0.0400
 6318SOL    HW120395   3.446   5.642  10.456 -0.4960 -0.6931  0.2850
 6318SOL    HW220396   3.575   5.570  10.490 -0.2046 -0.3475 -0.0759
 6319SOL     OW20397   3.911   6.698   7.216  0.1980  0.4961  0.0946
 6319SOL    HW120398   3.840   6.742   7.263  0.4621  0.5734  0.4222
 6319SOL    HW220399   3.891   6.605   7.223 -0.3834  0.5574 -0.6312
 6320SOL     OW20400   0.688   7.298   4.800  0.5828  0.2625  0.3548
 6320SOL    HW120401   0.782   7.310   4.811  0.9011 -0.9035 -0.9002
 6320SOL    HW220402   0.649   7.355   4.867  2.1322  1.7394  0.0677
 6321SOL     OW20403   0.825   0.788   4.634  0.9043  0.2486 -0.1551
 6321SOL    HW120404   0.766   0.834   4.574  0.3621 -0.3989 -0.1213
 6321SOL    HW220405   0.782   0.793   4.719  1.0562  0.0615 -0.0672
 6322SOL     OW20406   6.361   5.526   9.099 -0.5412  0.0296  0.1788
 6322SOL    HW120407   6.451   5.505   9.125 -0.6863 -1.0793 -0.1637
 6322SOL    HW220408   6.308   5.500   9.175 -0.6088  0.3240  0.2321
 6323SOL     OW20409   1.051   3.391   5.510 -0.0600  0.1842  0.4961
 6323SOL    HW120410   1.103   3.420   5.585  1.2618  1.8338 -0.9432
 6323SOL    HW220411   1.014   3.472   5.474  0.8736 -0.2672 -1.6666
 6324SOL     OW20412   7.483   5.253   1.148  0.1801 -0.0132  0.2285
 6324SOL    HW120413   7.448   5.300   1.073  0.5996  1.2399  0.7878
 6324SOL    HW220414   7.577   5.275   1.148  0.4501 -1.1026  0.3326
 6325SOL     OW20415   7.190   5.047   5.729  0.1078 -0.3748 -0.8056
 6325SOL    HW120416   7.196   5.137   5.697 -0.2095 -0.8092 -2.1347
 6325SOL    HW220417   7.262   5.039   5.792 -0.0536  0.8877 -0.4321
 6326SOL     OW20418   4.244   7.741   1.515 -0.2777  0.1094 -0.0133
 6326SOL    HW120419   4.157   7.702   1.521 -1.1499  1.5941 -2.0414
 6326SOL    HW220420   4.267   7.763   1.605 -1.5338 -1.2492  0.6723
 6327SOL     OW20421   1.160   7.463  12.050 -0.4085 -0.5378  0.1318
 6327SOL    HW120422   1.160   7.379  12.003 -0.3375 -0.5911  0.2252
 6327SOL    HW220423   1.205   7.443  12.132 -2.0036 -0.8503  0.9489
 6328SOL     OW20424   1.822   3.858   4.539 -0.1708  0.2611  0.0886
 6328SOL    HW120425   1.875   3.790   4.496 -0.3937  0.3393 -0.3175
 6328SOL    HW220426   1.886   3.919   4.574  0.0145  0.4395 -0.5415
 6329SOL     OW20427   0.045   4.224   8.703 -0.1209 -0.5734  0.8049
 6329SOL    HW120428   0.032   4.318   8.706  0.7732 -0.3644 -0.5974
 6329SOL    HW220429   0.103   4.211   8.628  0.9436 -2.1024  1.8288
 6330SOL     OW20430   3.959   2.589  11.967  0.1101 -0.2576 -0.5844
 6330SOL    HW120431   3.987   2.679  11.949 -0.1952  0.2578  1.3270
 6330SOL    HW220432   3.866   2.598  11.990 -0.3946 -1.3148 -2.0694
 6331SOL     OW20433   0.402   3.935   2.277 -0.1603  0.0254 -0.6164
 6331SOL    HW120434   0.369   3.845   2.275  0.7237 -0.3198 -0.0049
 6331SOL    HW220435   0.346   3.980   2.340 -0.6183 -0.0835 -0.9413
 6332SOL     OW20436   1.038   7.025   3.764  0.0770 -0.2955 -0.5709
 6332SOL    HW120437   1.097   6.962   3.723 -0.3558 -0.7608 -0.4802
 6332SOL    HW220438   1.026   7.094   3.698  1.1372  0.0757 -0.3974
 6333SOL     OW20439   1.412   4.816   3.570 -0.1800  0.1017 -1.1896
 6333SOL    HW120440   1.354   4.743   3.591  0.8575 -0.3536  0.2970
 6333SOL    HW220441   1.393   4.882   3.636  3.2567 -1.4180  1.7342
 6334SOL     OW20442   5.368   3.708   7.481  0.7084 -0.8189 -0.0992
 6334SOL    HW120443   5.443   3.767   7.475  0.7354 -0.9414 -1.2206
 6334SOL    HW220444   5.401   3.623   7.453  0.0717 -0.7792 -1.0316
 6335SOL     OW20445   0.621   5.556   9.216 -0.5620  0.2180  0.2806
 6335SOL    HW120446   0.656   5.583   9.301  0.6346  0.8456 -0.3742
 6335SOL    HW220447   0.650   5.624   9.155  5.3039 -3.5711 -2.0946
 6336SOL     OW20448   5.587   5.004   3.261 -0.0998 -0.1936  0.1948
 6336SOL    HW120449   5.681   4.985   3.259 -0.1815 -0.5566 -0.8063
 6336SOL    HW220450   5.564   5.020   3.169 -1.2497 -1.2679  0.2639
 6337SOL     OW20451   6.608   2.026   3.440  0.6796 -0.5987  0.1181
 6337SOL    HW120452   6.617   2.103   3.496  2.4170 -1.5005  1.1767
 6337SOL    HW220453   6.514   2.018   3.425  0.2694  0.4156  1.8772
 6338SOL     OW20454   6.450   0.302   6.589 -0.7289 -0.2372 -0.2049
 6338SOL    HW120455   6.458   0.284   6.683 -1.1042  1.4038  0.1668
 6338SOL    HW220456   6.365   0.266   6.565 -0.4859 -0.9631 -0.0004
 6339SOL     OW20457   3.995   0.118   0.134 -0.2115  0.7157 -0.3086
 6339SOL    HW120458   4.058   0.132   0.063 -0.8630  0.7716 -0.8847
 6339SOL    HW220459   3.957   0.204   0.150  0.0757  0.7396  0.2458
 6340SOL     OW20460   3.180   5.402   4.651 -0.0826  0.4740  0.3911
 6340SOL    HW120461   3.214   5.424   4.564 -0.7932 -1.1347 -0.3422
 6340SOL    HW220462   3.101   5.454   4.661 -0.3655  0.1651 -0.2220
 6341SOL     OW20463   0.547   2.569   0.377 -0.8666  0.1575 -0.4369
 6341SOL    HW120464   0.469   2.576   0.322 -1.2464  0.5825  0.1410
 6341SOL    HW220465   0.544   2.646   0.433 -0.7005 -0.4565  0.4433
 6342SOL     OW20466   6.496   0.578   7.189 -0.2280  0.1434  0.0998
 6342SOL    HW120467   6.530   0.489   7.200  0.6821  0.5094  0.2521
 6342SOL    HW220468   6.554   0.618   7.124 -1.9286 -0.0608 -1.6608
 6343SOL     OW20469   6.510   5.526   7.448  0.1845  0.0870  0.0290
 6343SOL    HW120470   6.591   5.539   7.398  0.3835 -0.7069  0.1337
 6343SOL    HW220471   6.445   5.579   7.402  0.9352  1.3984  0.4173
 6344SOL     OW20472   2.788   5.163   0.163 -0.1960  0.5248  0.4511
 6344SOL    HW120473   2.848   5.095   0.196  0.8618  1.7698  1.1886
 6344SOL    HW220474   2.795   5.155   0.068 -0.8192 -1.0081  0.5053
 6345SOL     OW20475   3.410   4.696  11.423 -0.2060 -0.2702 -0.0277
 6345SOL    HW120476   3.475   4.653  11.480 -1.4154 -0.8531  0.9523
 6345SOL    HW220477   3.326   4.676  11.464 -1.0130  0.4559 -1.2944
 6346SOL     OW20478   3.977   5.081   9.946 -0.1119 -0.0031 -0.1368
 6346SOL    HW120479   3.985   5.119  10.034 -2.2913 -1.5816  0.8516
 6346SOL    HW220480   3.986   4.986   9.960 -1.1020 -0.3324 -1.5190
 6347SOL     OW20481   5.448   3.511  11.646  0.6861  0.3484  0.3664
 6347SOL    HW120482   5.456   3.579  11.713  1.5437 -0.6723  1.3448
 6347SOL    HW220483   5.390   3.445  11.685 -2.0463  1.4932 -1.4652
 6348SOL     OW20484   2.111   5.549  11.336  0.2988 -0.2363 -0.1103
 6348SOL    HW120485   2.061   5.482  11.381 -0.3223  1.2158  1.4665
 6348SOL    HW220486   2.047   5.596  11.283  0.6387 -0.5667 -0.8239
 6349SOL     OW20487   5.419   2.100   1.473  0.2122 -0.0868  0.0849
 6349SOL    HW120488   5.429   2.106   1.378  3.0440  0.6319  0.3409
 6349SOL    HW220489   5.376   2.016   1.488 -1.4830  0.3614 -1.8441
 6350SOL     OW20490   7.509   1.244   3.562  0.5168  0.3583 -0.1127
 6350SOL    HW120491   7.497   1.335   3.590  0.7817  0.6107 -0.8028
 6350SOL    HW220492   7.427   1.201   3.583 -0.1829  1.1224 -1.1911
 6351SOL     OW20493   3.217   6.533   1.927  0.4958  0.7174  0.4989
 6351SOL    HW120494   3.293   6.584   1.954  0.5091  1.3335 -0.6177
 6351SOL    HW220495   3.192   6.571   1.842  0.6020 -1.2356 -0.4551
 6352SOL     OW20496   0.078   7.756  10.390  0.0949 -0.5611 -0.0246
 6352SOL    HW120497   0.034   7.774  10.473  0.1647 -0.4822 -0.0052
 6352SOL    HW220498   0.159   7.712  10.416  0.2726 -0.2385 -0.0339
 6353SOL     OW20499   1.617   2.581   3.623  0.4464 -0.0036  0.0007
 6353SOL    HW120500   1.603   2.654   3.683 -2.5813 -0.8826  0.5482
 6353SOL    HW220501   1.636   2.506   3.679  0.7427 -0.2044 -0.3617
 6354SOL     OW20502   1.003   2.869   7.192  0.0148  0.0964 -0.0328
 6354SOL    HW120503   0.950   2.897   7.266  1.5352 -0.0168  1.1661
 6354SOL    HW220504   0.956   2.899   7.114 -1.4062  0.5981  0.9920
 6355SOL     OW20505   1.958   3.203   6.294 -0.0961  0.3884  0.6010
 6355SOL    HW120506   1.901   3.185   6.219 -0.3505 -1.8819  1.2531
 6355SOL    HW220507   1.908   3.172   6.369  2.0476 -2.0430  1.1664
 6356SOL     OW20508   7.336   3.265   7.252 -0.0998 -0.2990  0.1314
 6356SOL    HW120509   7.242   3.259   7.234 -0.1804 -0.2959  0.5307
 6356SOL    HW220510   7.344   3.238   7.344  0.2234  0.2198  0.2616
 6357SOL     OW20511   6.098   6.240   9.275 -0.0382 -0.0404 -0.0513
 6357SOL    HW120512   6.114   6.154   9.314  0.5097 -0.1552 -0.5142
 6357SOL    HW220513   6.185   6.273   9.252  0.0357  1.6968  2.2672
 6358SOL     OW20514   2.561   4.221   9.994 -0.1563 -0.3159  0.1102
 6358SOL    HW120515   2.623   4.258  10.057 -0.7023  0.1991  0.3486
 6358SOL    HW220516   2.480   4.270  10.007  0.0818  0.7570 -1.8849
 6359SOL     OW20517   1.154   3.206  12.330  0.4903  0.2048 -0.6362
 6359SOL    HW120518   1.077   3.176  12.284  0.8068 -1.1909 -0.2951
 6359SOL    HW220519   1.123   3.278  12.385 -0.5858 -0.4001 -0.4366
 6360SOL     OW20520   6.579   4.279  12.208  1.0922 -0.0284 -0.2816
 6360SOL    HW120521   6.610   4.243  12.291  2.8362 -0.1130 -0.9275
 6360SOL    HW220522   6.593   4.374  12.217 -2.2695  0.5049  0.9123
 6361SOL     OW20523   3.887   7.815   9.691 -0.4908 -0.4501  0.4219
 6361SOL    HW120524   3.856   7.882   9.631 -0.7335 -1.4522 -0.6057
 6361SOL    HW220525   3.974   7.793   9.658 -1.0797 -1.8162 -0.2865
 6362SOL     OW20526   5.188   6.433   4.824 -0.1834  0.0795 -0.2157
 6362SOL    HW120527   5.234   6.508   4.787 -0.1855 -0.1763 -0.7430
 6362SOL    HW220528   5.257   6.382   4.867 -0.3912  1.1542  1.5024
 6363SOL     OW20529   6.567   0.236  10.526 -0.3390 -0.8315  0.0212
 6363SOL    HW120530   6.604   0.243  10.614  0.5156 -1.4509 -0.2782
 6363SOL    HW220531   6.602   0.311  10.479 -0.1700 -0.9309 -0.0116
 6364SOL     OW20532   4.200   0.958   1.023 -0.6075 -0.4156  0.1046
 6364SOL    HW120533   4.200   1.051   1.046 -0.8404 -0.2777 -0.4189
 6364SOL    HW220534   4.287   0.941   0.989 -0.7861 -0.2050 -0.4764
 6365SOL     OW20535   7.465   7.586   9.688 -0.1981 -0.3524  0.2679
 6365SOL    HW120536   7.489   7.628   9.771 -0.5653 -0.4100  0.4027
 6365SOL    HW220537   7.513   7.503   9.689  0.6333  0.1091 -0.0563
 6366SOL     OW20538   5.315   7.713  10.982 -0.0011 -0.0453  0.0895
 6366SOL    HW120539   5.335   7.789  10.928  0.2709  1.1394  1.7547
 6366SOL    HW220540   5.297   7.643  10.920  1.0792  1.0212 -1.5074
 6367SOL     OW20541   7.698   5.522   4.861 -0.3174 -0.0131 -0.0569
 6367SOL    HW120542   7.637   5.582   4.903  0.7645  0.5026  0.8441
 6367SOL    HW220543   7.653   5.493   4.781 -1.9353 -0.0856  0.8464
 6368SOL     OW20544   6.122   6.735   5.283  0.3826  0.2921  0.2446
 6368SOL    HW120545   6.128   6.675   5.209 -2.3862  1.1622 -0.8107
 6368SOL    HW220546   6.209   6.734   5.322  1.6186 -1.0764 -2.3209
 6369SOL     OW20547   5.688   7.454   7.731  0.1861  0.2841 -0.1630
 6369SOL    HW120548   5.684   7.397   7.808 -1.4568 -0.1360 -0.5311
 6369SOL    HW220549   5.606   7.503   7.733 -1.2568 -1.6926 -3.0804
 6370SOL     OW20550   6.145   5.863   5.680  0.6063 -0.1085 -0.0984
 6370SOL    HW120551   6.127   5.915   5.759  1.4954 -1.1281  0.7934
 6370SOL    HW220552   6.193   5.923   5.623  1.7806  0.0294  0.9916
 6371SOL     OW20553   6.247   1.338   1.792 -0.5983  0.5944 -0.2829
 6371SOL    HW120554   6.256   1.246   1.767  0.6321  0.4842  0.4962
 6371SOL    HW220555   6.153   1.352   1.801 -0.9735  0.0392 -2.6327
 6372SOL     OW20556   0.506   2.852  12.249  0.6257  0.1087 -0.8587
 6372SOL    HW120557   0.513   2.910  12.174 -2.3484  2.3364  0.3905
 6372SOL    HW220558   0.415   2.823  12.250  0.8627 -0.8035  1.1993
 6373SOL     OW20559   0.915   3.905   0.581 -0.1681 -0.0910  1.0038
 6373SOL    HW120560   0.928   3.938   0.492 -0.7276  0.5729  1.1634
 6373SOL    HW220561   0.985   3.840   0.592 -0.6134 -0.8164 -0.2182
 6374SOL     OW20562   0.026   6.466   4.497 -0.6158  0.6741  0.2174
 6374SOL    HW120563   0.008   6.373   4.493  3.0120 -0.1778  0.4131
 6374SOL    HW220564   0.064   6.488   4.411 -0.6318  1.7634  0.4641
 6375SOL     OW20565   1.642   4.242   8.690  0.7981 -0.4923 -0.5937
 6375SOL    HW120566   1.629   4.187   8.613  0.8855 -0.6253 -0.5147
 6375SOL    HW220567   1.583   4.206   8.756 -1.2412  1.2123 -1.3772
 6376SOL     OW20568   4.068   4.506   2.009 -0.2672  0.7363  0.3393
 6376SOL    HW120569   4.139   4.570   2.023 -0.4494  0.8813  0.5994
 6376SOL    HW220570   3.991   4.560   1.991 -0.5938  0.6169  1.3215
 6377SOL     OW20571   3.604   6.417   0.347  0.1318  0.5651 -0.0406
 6377SOL    HW120572   3.653   6.478   0.293 -1.2059  2.1595  0.4781
 6377SOL    HW220573   3.567   6.470   0.418 -2.6580 -0.4234 -0.6125
 6378SOL     OW20574   5.899   2.820   5.784 -0.1146  0.5593  0.2276
 6378SOL    HW120575   5.822   2.808   5.839  0.8840  2.0331  2.0842
 6378SOL    HW220576   5.926   2.911   5.800  2.8417 -0.3098  0.8890
 6379SOL     OW20577   1.107   2.650   4.857 -0.4658 -0.1265 -0.2863
 6379SOL    HW120578   1.103   2.627   4.950 -1.3901  0.1778 -0.2448
 6379SOL    HW220579   1.177   2.715   4.852 -0.2304 -0.3344  0.1459
 6380SOL     OW20580   5.735   7.562   7.999 -0.4677 -0.2110 -0.3511
 6380SOL    HW120581   5.729   7.587   7.907  1.9758 -0.5138 -0.6395
 6380SOL    HW220582   5.644   7.564   8.029 -1.3590 -0.2314 -2.7787
 6381SOL     OW20583   1.185   4.595  11.196  0.2128  0.5230 -0.0197
 6381SOL    HW120584   1.100   4.636  11.213 -0.2816 -0.1369 -0.8052
 6381SOL    HW220585   1.248   4.649  11.244 -0.6728  0.8821  0.7636
 6382SOL     OW20586   5.246   4.104  11.422 -0.0828 -0.0405 -0.4899
 6382SOL    HW120587   5.297   4.170  11.375 -0.3408  0.5899  0.1097
 6382SOL    HW220588   5.312   4.049  11.464  0.1303  1.4654  1.2445
 6383SOL     OW20589   2.343   6.550   8.778  0.5791 -0.5227  0.5201
 6383SOL    HW120590   2.288   6.499   8.838  0.8911 -0.2884  1.0105
 6383SOL    HW220591   2.294   6.549   8.696 -1.0607  1.1625  1.3881
 6384SOL     OW20592   6.999   3.448   6.356  0.1250  0.2714 -0.6240
 6384SOL    HW120593   7.080   3.430   6.307  0.7887  2.3009 -0.3397
 6384SOL    HW220594   7.004   3.389   6.432 -0.0844 -1.6661 -2.0397
 6385SOL     OW20595   1.830   3.853   5.072  0.3454 -0.2239  0.1072
 6385SOL    HW120596   1.847   3.905   5.151  1.5871  1.1784 -1.0311
 6385SOL    HW220597   1.914   3.809   5.054  0.1901 -0.2087 -0.6686
 6386SOL     OW20598   7.116   2.700   9.739 -0.2433 -0.7951 -0.0075
 6386SOL    HW120599   7.033   2.734   9.770  0.3287  1.2302 -0.5286
 6386SOL    HW220600   7.104   2.605   9.735 -2.0307 -0.6595  1.2817
 6387SOL     OW20601   4.654   4.626   4.258 -0.3215 -0.6456 -0.2365
 6387SOL    HW120602   4.600   4.705   4.267  1.2195  0.2728  1.5476
 6387SOL    HW220603   4.706   4.642   4.180 -1.2987 -0.7295 -0.9245
 6388SOL     OW20604   2.891   0.252   0.070 -0.0772  0.0331  0.0687
 6388SOL    HW120605   2.834   0.177   0.086  0.2484 -0.2314  0.0047
 6388SOL    HW220606   2.905   0.290   0.156  0.0191 -0.1738  0.1453
 6389SOL     OW20607   4.261   1.395   2.674  0.6234 -0.0952 -0.3402
 6389SOL    HW120608   4.248   1.477   2.721  0.7401  0.3174 -1.0271
 6389SOL    HW220609   4.192   1.393   2.608 -0.4014 -1.3138  0.6809
 6390SOL     OW20610   7.251   3.630   9.649 -0.1815  0.2744 -0.3409
 6390SOL    HW120611   7.237   3.545   9.691  0.5071  1.4588  2.4891
 6390SOL    HW220612   7.168   3.676   9.661 -0.4290  0.1870 -1.5508
 6391SOL     OW20613   5.710   0.755  10.553  0.4045  0.2325 -0.2046
 6391SOL    HW120614   5.692   0.768  10.646 -0.1130  0.8100 -0.3729
 6391SOL    HW220615   5.778   0.820  10.533 -1.1412  1.7507 -0.7267
 6392SOL     OW20616   4.778   1.800  11.294 -0.3613 -0.0224  0.2812
 6392SOL    HW120617   4.840   1.769  11.228 -1.5592 -0.4644 -0.6890
 6392SOL    HW220618   4.802   1.892  11.308 -0.0766  0.0907 -0.8065
 6393SOL     OW20619   7.447   1.758   6.282 -0.3205  0.2290  0.5280
 6393SOL    HW120620   7.516   1.728   6.223 -0.5484  0.4348  0.1564
 6393SOL    HW220621   7.473   1.724   6.368 -1.4199 -2.5418 -0.1360
 6394SOL     OW20622   7.501   1.728   1.105 -0.3669  0.4593 -0.5408
 6394SOL    HW120623   7.535   1.741   1.194  0.2167  0.3015 -0.7319
 6394SOL    HW220624   7.424   1.784   1.100 -1.9339 -1.4145  0.8982
 6395SOL     OW20625   6.145   4.915  10.221 -0.4627  0.4534  0.1762
 6395SOL    HW120626   6.221   4.949  10.268  1.3262 -1.2060 -1.3465
 6395SOL    HW220627   6.070   4.943  10.274  1.2816  0.4542  2.8495
 6396SOL     OW20628   1.575   1.304  11.860 -0.0870 -0.6680  0.5544
 6396SOL    HW120629   1.654   1.320  11.912  1.1283 -0.9084 -1.1590
 6396SOL    HW220630   1.579   1.210  11.839 -2.6969 -1.5718  3.3350
 6397SOL     OW20631   6.764   4.006  11.527 -0.1856 -0.2780 -0.1838
 6397SOL    HW120632   6.710   4.081  11.503 -1.1640 -0.3076  1.7369
 6397SOL    HW220633   6.722   3.970  11.605  1.4416 -1.5797  0.1523
 6398SOL     OW20634   4.734   0.395   1.838  0.1005  0.0381 -0.4486
 6398SOL    HW120635   4.709   0.398   1.746  0.8559  2.4427 -0.6519
 6398SOL    HW220636   4.653   0.372   1.884 -0.8945  1.1126 -1.5739
 6399SOL     OW20637   5.148   0.040   8.889  0.6551  0.5726  0.3161
 6399SOL    HW120638   5.184   0.126   8.869  0.0170  0.5449 -1.0408
 6399SOL    HW220639   5.059   0.057   8.919  0.8549  0.4422  1.0068
 6400SOL     OW20640   0.876   0.974   8.140  0.0575 -0.0777 -0.0426
 6400SOL    HW120641   0.855   0.983   8.047 -0.2559 -1.4439 -0.1259
 6400SOL    HW220642   0.964   0.938   8.142  0.8402  1.7377  0.2503
 6401SOL     OW20643   7.441   7.230   8.126 -0.0509  0.2943 -0.0130
 6401SOL    HW120644   7.347   7.219   8.112 -0.2339 -2.5088  2.4960
 6401SOL    HW220645   7.481   7.192   8.047 -1.0315 -0.5252 -0.1332
 6402SOL     OW20646   5.058   7.399   4.893  0.2028  0.0157 -0.6815
 6402SOL    HW120647   5.144   7.438   4.877  0.4017  0.0460  0.3735
 6402SOL    HW220648   5.075   7.327   4.953 -0.5913  0.4525  0.0837
 6403SOL     OW20649   3.774   0.470  11.121  0.2729  0.8266  0.0721
 6403SOL    HW120650   3.782   0.552  11.074  1.4214  0.2132 -0.8546
 6403SOL    HW220651   3.753   0.405  11.054 -1.1433  0.4256  0.8644
 6404SOL     OW20652   0.072   0.618   9.099 -0.1419  0.1396 -0.4391
 6404SOL    HW120653   0.160   0.650   9.079 -0.5793  1.5419 -0.2512
 6404SOL    HW220654   0.035   0.595   9.014 -0.4874  2.0306 -0.8526
 6405SOL     OW20655   3.588   2.128   8.789 -0.2529 -0.0772 -0.0386
 6405SOL    HW120656   3.518   2.073   8.824 -2.9573  2.0425 -1.6418
 6405SOL    HW220657   3.575   2.213   8.832  2.9165 -0.1691  1.3652
 6406SOL     OW20658   4.060   4.921   4.903 -0.5107 -0.4881  0.6474
 6406SOL    HW120659   4.079   4.827   4.909  0.3323 -0.3312  0.5340
 6406SOL    HW220660   4.087   4.956   4.988  0.0815 -0.1974  0.3433
 6407SOL     OW20661   6.470   1.851   4.543  0.7518  0.5764  0.2692
 6407SOL    HW120662   6.482   1.924   4.604  0.5702 -0.5537  1.7324
 6407SOL    HW220663   6.396   1.877   4.488  0.1312  1.1552  1.3374
 6408SOL     OW20664   1.174   0.224  11.676 -0.4162 -0.0075  0.5330
 6408SOL    HW120665   1.149   0.166  11.748  0.6266 -0.9113  0.1949
 6408SOL    HW220666   1.239   0.174  11.626 -0.8279  0.7559 -0.8155
 6409SOL     OW20667   3.771   1.767   8.546  0.6333  0.2369  0.4356
 6409SOL    HW120668   3.778   1.863   8.552  0.2314  0.3606 -0.8641
 6409SOL    HW220669   3.828   1.735   8.615  0.6195  1.4221  1.0212
 6410SOL     OW20670   0.112   2.607   7.149 -0.2134 -0.1850  0.5568
 6410SOL    HW120671   0.098   2.525   7.195 -1.5928 -0.1254  0.2957
 6410SOL    HW220672   0.196   2.596   7.105  0.1278 -1.0318  1.3865
 6411SOL     OW20673   3.717   2.497   1.618  0.2419 -0.3618 -0.6381
 6411SOL    HW120674   3.667   2.432   1.568  0.6418 -0.6144 -0.7158
 6411SOL    HW220675   3.687   2.581   1.584 -0.6564 -0.4810 -0.1767
 6412SOL     OW20676   6.050   7.510   2.261  0.2159  0.2626 -0.5133
 6412SOL    HW120677   6.034   7.565   2.184 -0.9290  1.2248  0.3684
 6412SOL    HW220678   5.976   7.529   2.319  1.3674  0.0287  1.0868
 6413SOL     OW20679   1.483   4.923   0.447 -0.3252 -0.0364  0.1200
 6413SOL    HW120680   1.402   4.938   0.496 -1.8946  0.5483 -2.4380
 6413SOL    HW220681   1.552   4.963   0.500 -2.0780  1.5635  1.3041
 6414SOL     OW20682   4.355   0.820   2.035 -0.4838 -0.3718  0.0523
 6414SOL    HW120683   4.405   0.767   1.973  1.3651 -0.3583  1.4463
 6414SOL    HW220684   4.295   0.758   2.077  1.7571 -1.5112  1.7673
 6415SOL     OW20685   2.666   7.466   4.549  0.4683  0.5283  0.6506
 6415SOL    HW120686   2.590   7.519   4.572  0.0283  0.1465  0.0898
 6415SOL    HW220687   2.687   7.490   4.459  1.7992  1.5469  1.1838
 6416SOL     OW20688   3.233   1.393   5.530 -0.2106 -0.1269 -0.2344
 6416SOL    HW120689   3.156   1.449   5.535  0.2785  0.5611 -0.3976
 6416SOL    HW220690   3.303   1.449   5.498 -0.0456 -1.1656 -1.8343
 6417SOL     OW20691   6.857   3.764   4.921  0.1834  0.1501  0.0967
 6417SOL    HW120692   6.787   3.824   4.896 -0.5896 -0.3173  1.0729
 6417SOL    HW220693   6.835   3.682   4.875  0.3302  0.1237  0.0722
 6418SOL     OW20694   1.897   4.901   9.909  0.4195  0.0290 -0.2738
 6418SOL    HW120695   1.898   4.913   9.814 -1.4835 -0.1363 -0.3416
 6418SOL    HW220696   1.888   4.989   9.945 -0.4506 -0.0364 -0.3151
 6419SOL     OW20697   3.705   0.757   4.919  0.3578  0.5233 -0.5887
 6419SOL    HW120698   3.622   0.715   4.940  0.8367 -0.4571 -0.6019
 6419SOL    HW220699   3.730   0.804   4.999 -0.4181  1.1974 -0.7341
 6420SOL     OW20700   6.000   7.109   1.398  0.1078  0.1942  0.3852
 6420SOL    HW120701   6.001   7.155   1.315 -0.4212  0.2704  0.4186
 6420SOL    HW220702   6.077   7.052   1.395  0.8427  1.1730  0.4046
 6421SOL     OW20703   3.673   0.796   4.365  0.0938 -0.0282  0.4324
 6421SOL    HW120704   3.616   0.844   4.425  0.9030 -0.4320  1.5453
 6421SOL    HW220705   3.723   0.864   4.320 -0.1894  0.2576  0.5464
 6422SOL     OW20706   1.609   4.683   3.024 -0.0901 -0.1843  0.1270
 6422SOL    HW120707   1.548   4.616   2.994 -0.2518  0.5602 -1.3172
 6422SOL    HW220708   1.695   4.649   3.000 -0.2798  0.9643 -2.5903
 6423SOL     OW20709   4.768   2.639   7.412 -0.3355 -0.1116  0.2654
 6423SOL    HW120710   4.798   2.566   7.465  0.1198  1.1881  1.9023
 6423SOL    HW220711   4.749   2.601   7.327  0.3790 -2.0231  0.9065
 6424SOL     OW20712   5.820   1.877   8.534 -0.6699 -0.6226 -0.1800
 6424SOL    HW120713   5.796   1.785   8.528 -1.2333 -0.5138  0.2394
 6424SOL    HW220714   5.867   1.884   8.618  1.8896 -1.0388 -1.4743
 6425SOL     OW20715   3.155   1.793   2.925  0.3876 -0.0051  0.4420
 6425SOL    HW120716   3.116   1.715   2.966 -0.0198 -0.7856 -1.3026
 6425SOL    HW220717   3.237   1.761   2.887  0.3059  0.4576 -0.1311
 6426SOL     OW20718   5.579   6.810   6.689 -0.1308 -0.0528 -0.8918
 6426SOL    HW120719   5.651   6.851   6.641  0.3862  1.5921  1.1298
 6426SOL    HW220720   5.500   6.845   6.649  0.1074 -1.4940 -2.8084
 6427SOL     OW20721   6.778   7.036   9.639  0.0384  0.1549  0.3457
 6427SOL    HW120722   6.843   7.056   9.571  1.2179  1.2304  1.7193
 6427SOL    HW220723   6.754   6.945   9.623  0.5343  0.2853 -1.3003
 6428SOL     OW20724   7.656   0.875   7.508  0.3477  0.9542  0.0397
 6428SOL    HW120725   7.695   0.962   7.520  1.0897  0.5776  0.3966
 6428SOL    HW220726   7.731   0.816   7.503 -0.1194  0.4140 -0.9267
 6429SOL     OW20727   1.896   2.718   2.758 -0.0529 -0.0503 -0.3502
 6429SOL    HW120728   1.846   2.641   2.731 -1.0532 -0.3852  2.1920
 6429SOL    HW220729   1.973   2.682   2.802 -1.7501  0.1645  3.1443
 6430SOL     OW20730   5.804   6.500   5.776 -0.0669  0.0592  0.1482
 6430SOL    HW120731   5.874   6.517   5.713  0.4468 -0.5413  0.5479
 6430SOL    HW220732   5.807   6.575   5.836 -0.0242  0.2306 -0.0686
 6431SOL     OW20733   7.594   1.135   2.322 -0.3923  0.0180 -0.0637
 6431SOL    HW120734   7.672   1.084   2.302 -0.5232  0.1912 -1.0634
 6431SOL    HW220735   7.613   1.176   2.406  0.9148  0.6539 -0.6477
 6432SOL     OW20736   3.156   1.221   5.926  0.3902  0.3294  0.1088
 6432SOL    HW120737   3.145   1.126   5.928 -0.1519  0.3503 -1.1149
 6432SOL    HW220738   3.073   1.255   5.960  0.0103  0.3731 -0.8389
 6433SOL     OW20739   1.768   6.648   0.058 -0.4732 -0.3646 -0.0626
 6433SOL    HW120740   1.725   6.565   0.075  1.4084 -1.2313  0.6919
 6433SOL    HW220741   1.780   6.688   0.144  0.1846 -0.1266 -0.2520
 6434SOL     OW20742   7.692   7.007  11.760 -0.4017 -0.4056 -0.3133
 6434SOL    HW120743   7.754   7.016  11.687  0.6439 -0.4716  0.5555
 6434SOL    HW220744   7.703   6.917  11.789 -0.8266 -0.3798 -0.0742
 6435SOL     OW20745   0.981   6.088   2.665 -0.2878  0.0118 -0.1250
 6435SOL    HW120746   0.895   6.070   2.625  0.6927  0.0567 -2.3899
 6435SOL    HW220747   1.038   6.020   2.630  1.2853  1.7569 -1.1354
 6436SOL     OW20748   5.073   7.239   6.098  0.1997  0.4264 -0.2493
 6436SOL    HW120749   5.061   7.327   6.134 -0.1860  0.8688 -1.3961
 6436SOL    HW220750   5.065   7.181   6.173 -0.1151  1.3340  0.4392
 6437SOL     OW20751   3.487   6.615   2.247 -0.2217  0.0999  0.7811
 6437SOL    HW120752   3.550   6.638   2.316  0.1313 -1.8561  1.1752
 6437SOL    HW220753   3.410   6.668   2.266  0.5276  0.9548  1.5610
 6438SOL     OW20754   6.919   0.658  11.336 -0.0240 -0.5161  0.5846
 6438SOL    HW120755   7.000   0.608  11.344 -0.5165 -1.5818 -0.5408
 6438SOL    HW220756   6.947   0.744  11.306  0.7391 -0.6563  0.8642
 6439SOL     OW20757   4.886   4.549   9.903  0.3011 -0.2472 -0.4055
 6439SOL    HW120758   4.898   4.455   9.915  0.2280 -0.3459 -1.0835
 6439SOL    HW220759   4.825   4.557   9.831 -0.0186  0.3210 -0.0810
 6440SOL     OW20760   0.805   1.773   4.298  0.3878  0.0533 -0.6852
 6440SOL    HW120761   0.774   1.701   4.243  0.3403 -1.0565  0.7373
 6440SOL    HW220762   0.799   1.850   4.242  1.1859 -1.1550 -2.5211
 6441SOL     OW20763   4.259   7.843  12.334 -1.0354  0.1417  1.1859
 6441SOL    HW120764   4.185   7.905  12.330  0.0044  1.5061  2.0409
 6441SOL    HW220765   4.336   7.898  12.319 -0.2337 -1.4456 -0.8664
 6442SOL     OW20766   6.506   4.037   6.860  0.0465 -0.2329  0.6977
 6442SOL    HW120767   6.525   4.020   6.953 -1.4984  1.0558  1.3097
 6442SOL    HW220768   6.584   4.007   6.814  1.0499 -0.5011  2.4507
 6443SOL     OW20769   7.053   4.454   4.450 -0.7061  0.5173  0.0197
 6443SOL    HW120770   7.024   4.538   4.487 -1.9016  0.1179  0.0390
 6443SOL    HW220771   7.032   4.390   4.517 -1.3969 -0.0084 -0.6758
 6444SOL     OW20772   5.818   7.662   1.709 -0.1228 -0.2162  0.5478
 6444SOL    HW120773   5.774   7.587   1.750 -0.7678 -0.4707 -0.5768
 6444SOL    HW220774   5.756   7.734   1.716  0.0546 -0.0712  0.6475
 6445SOL     OW20775   0.157   6.211   9.223  0.2306 -0.3319 -0.1567
 6445SOL    HW120776   0.222   6.168   9.279 -0.2193 -1.1461 -0.2519
 6445SOL    HW220777   0.192   6.300   9.211  0.7288 -0.3860  0.7591
 6446SOL     OW20778   3.086   5.880   6.505 -0.4539 -0.0986  0.2636
 6446SOL    HW120779   3.161   5.937   6.524 -2.0798  2.4394 -0.3193
 6446SOL    HW220780   3.034   5.882   6.586 -1.8235  1.5499 -0.5711
 6447SOL     OW20781   6.579   0.647   0.275 -0.4346 -0.0264 -0.4324
 6447SOL    HW120782   6.581   0.571   0.333 -0.8963  1.2534  1.3478
 6447SOL    HW220783   6.669   0.678   0.272 -0.5939  0.5673  0.5580
 6448SOL     OW20784   0.349   7.687  11.344  0.5998 -0.3993 -0.1541
 6448SOL    HW120785   0.298   7.612  11.312  0.7978 -1.0799  1.0485
 6448SOL    HW220786   0.288   7.735  11.400  0.9520 -0.6119  0.4203
 6449SOL     OW20787   3.948   6.423   7.453 -0.6035  0.2723 -0.0504
 6449SOL    HW120788   3.950   6.434   7.358  0.8601  2.1461  0.1487
 6449SOL    HW220789   4.016   6.358   7.471  0.7544  1.6171 -0.1411
 6450SOL     OW20790   3.560   1.671  12.062 -0.3500  0.4628 -0.5596
 6450SOL    HW120791   3.636   1.707  12.017 -0.2408  1.7042  0.5925
 6450SOL    HW220792   3.500   1.744  12.071 -1.0993 -0.1759 -0.2093
 6451SOL     OW20793   5.385   7.699   5.654 -0.3253 -0.0797 -0.8241
 6451SOL    HW120794   5.480   7.706   5.667 -0.2120 -1.5581 -0.7520
 6451SOL    HW220795   5.374   7.624   5.596 -1.5523 -1.1256  0.6902
 6452SOL     OW20796   2.153   0.593   9.650 -0.1161 -0.0598  0.5345
 6452SOL    HW120797   2.063   0.585   9.618 -0.1494 -0.3019  0.6943
 6452SOL    HW220798   2.159   0.532   9.722  0.2909 -0.3285  0.2770
 6453SOL     OW20799   3.090   0.400   5.963 -0.3426 -0.3772 -0.1697
 6453SOL    HW120800   3.049   0.429   5.881 -0.7368 -0.5512 -0.0363
 6453SOL    HW220801   3.120   0.481   6.004 -0.1103 -0.2913 -0.5003
 6454SOL     OW20802   6.839   6.813   9.334  0.2088  0.2476 -0.2187
 6454SOL    HW120803   6.757   6.839   9.292 -1.0019  2.4176  3.0547
 6454SOL    HW220804   6.812   6.779   9.420  2.6243 -1.5101 -0.0516
 6455SOL     OW20805   4.583   5.780  10.282  0.1497 -0.4711 -0.4642
 6455SOL    HW120806   4.665   5.827  10.301  0.5081 -1.5125  0.6876
 6455SOL    HW220807   4.601   5.689  10.307 -1.3178 -0.7549 -0.3604
 6456SOL     OW20808   5.501   4.215   6.753 -0.3404 -0.5448  0.3470
 6456SOL    HW120809   5.570   4.165   6.796 -1.1546 -1.4285  0.6536
 6456SOL    HW220810   5.419   4.172   6.780 -0.8897 -1.3603 -2.3686
 6457SOL     OW20811   4.338   6.313   6.768 -0.1330 -0.4439  0.4892
 6457SOL    HW120812   4.432   6.331   6.760 -0.2358 -0.4900 -1.1231
 6457SOL    HW220813   4.328   6.223   6.737 -0.5938 -0.8033  1.6281
 6458SOL     OW20814   4.151   0.716   4.765  0.4458  0.8306 -0.0482
 6458SOL    HW120815   4.114   0.804   4.773  2.9242  1.8219  2.4123
 6458SOL    HW220816   4.130   0.673   4.847 -2.0105 -1.5752 -1.7710
 6459SOL     OW20817   0.798   7.426   2.329  0.3125 -0.3237  0.0992
 6459SOL    HW120818   0.778   7.468   2.413  0.8469 -0.9100  0.5198
 6459SOL    HW220819   0.718   7.378   2.306 -0.2800  0.8362 -0.3502
 6460SOL     OW20820   6.320   4.241   9.955 -0.3229  0.2198  0.1984
 6460SOL    HW120821   6.262   4.203  10.021 -0.3782  0.4976  0.3088
 6460SOL    HW220822   6.267   4.307   9.911 -0.3010 -0.0038 -0.1597
 6461SOL     OW20823   7.604   1.654  10.567 -0.0052  0.3832 -0.0318
 6461SOL    HW120824   7.539   1.604  10.617  0.6129 -0.9286 -0.4992
 6461SOL    HW220825   7.681   1.657  10.624 -0.1808  1.2468  0.1869
 6462SOL     OW20826   7.470   3.052   1.643  0.2404  0.6185  0.6274
 6462SOL    HW120827   7.439   3.098   1.721 -1.1120  0.5474  0.1513
 6462SOL    HW220828   7.491   3.121   1.581  3.3707  0.8052  1.6963
 6463SOL     OW20829   3.461   3.230  10.320  0.3272  0.0121 -0.1887
 6463SOL    HW120830   3.454   3.244  10.414  2.5744 -0.4865  0.1021
 6463SOL    HW220831   3.373   3.201  10.294 -0.5443  0.9020  1.5823
 6464SOL     OW20832   2.175   1.110  12.318  0.2289 -0.1977 -0.0392
 6464SOL    HW120833   2.141   1.049  12.253 -0.1736  1.3594 -1.3721
 6464SOL    HW220834   2.103   1.121  12.380 -0.3340  0.1937 -0.7423
 6465SOL     OW20835   1.753   5.212   4.717 -0.2941  0.5235 -0.9786
 6465SOL    HW120836   1.749   5.300   4.680 -2.2459  0.4148 -1.1652
 6465SOL    HW220837   1.680   5.209   4.778  0.4680 -0.6035 -0.0914
 6466SOL     OW20838   7.370   4.812  10.593 -0.1067 -0.3790  0.1668
 6466SOL    HW120839   7.326   4.887  10.555  0.2668  1.2491  2.6927
 6466SOL    HW220840   7.449   4.801  10.540  0.6418  2.0898  0.6187
 6467SOL     OW20841   0.571   1.884   1.928 -0.0881 -0.3608 -0.8705
 6467SOL    HW120842   0.604   1.801   1.961 -0.2053 -0.7421 -1.6885
 6467SOL    HW220843   0.483   1.892   1.965  0.1780 -0.2575 -0.2352
 6468SOL     OW20844   4.948   2.723   1.437  0.1257 -0.2282 -0.1326
 6468SOL    HW120845   5.013   2.693   1.501  0.9922 -0.8130 -1.2667
 6468SOL    HW220846   4.993   2.721   1.353 -0.5836  1.8413 -0.6176
 6469SOL     OW20847   0.611   0.979   1.890  0.2988 -0.3775 -0.2871
 6469SOL    HW120848   0.694   1.024   1.873 -0.2212  0.6273 -0.1963
 6469SOL    HW220849   0.591   0.934   1.808 -0.4677  1.6552 -1.2626
 6470SOL     OW20850   2.571   5.784   8.406 -0.2308  0.1305  0.3090
 6470SOL    HW120851   2.514   5.722   8.360 -1.5649  0.6085  1.2268
 6470SOL    HW220852   2.512   5.856   8.431  1.3490  1.9897 -1.0834
 6471SOL     OW20853   0.636   7.808   3.567 -0.5006 -0.9108  0.1737
 6471SOL    HW120854   0.712   7.863   3.551 -0.4659 -1.1427 -0.4632
 6471SOL    HW220855   0.596   7.796   3.481 -1.5578 -0.3592  0.5713
 6472SOL     OW20856   3.389   1.095   9.235 -0.4253 -0.3098 -0.5651
 6472SOL    HW120857   3.440   1.154   9.291  0.9792 -1.6297 -0.3864
 6472SOL    HW220858   3.433   1.010   9.244 -0.7076 -0.7588 -2.9696
 6473SOL     OW20859   5.212   7.350   2.479  0.2248  0.1389  0.5855
 6473SOL    HW120860   5.191   7.292   2.552 -0.5821 -1.7103 -1.0115
 6473SOL    HW220861   5.128   7.393   2.459 -0.0963 -0.9379 -0.5147
 6474SOL     OW20862   1.823   6.063   8.888 -0.0869 -0.4940  0.1117
 6474SOL    HW120863   1.736   6.083   8.855 -0.2664 -0.5574  0.5425
 6474SOL    HW220864   1.808   6.011   8.967  0.3773 -2.4438 -1.0357
 6475SOL     OW20865   0.644   3.586   4.854 -0.4907  0.1992  0.2980
 6475SOL    HW120866   0.576   3.544   4.907 -0.3867 -0.5783 -0.1673
 6475SOL    HW220867   0.603   3.666   4.821 -1.0245 -0.0262  0.4039
 6476SOL     OW20868   7.696   3.055   5.517 -0.9127  0.4721  0.0052
 6476SOL    HW120869   7.785   3.088   5.505 -0.9745  1.0644  1.0844
 6476SOL    HW220870   7.706   2.984   5.580 -1.0704 -0.1950 -0.7057
 6477SOL     OW20871   0.756   5.167   3.733 -0.9701  0.1666 -0.4335
 6477SOL    HW120872   0.822   5.191   3.668 -0.0443 -1.3766 -0.1104
 6477SOL    HW220873   0.806   5.156   3.815 -1.3215 -2.4282 -0.4803
 6478SOL     OW20874   1.074   0.444   8.109 -0.7089  0.8217  0.1456
 6478SOL    HW120875   1.054   0.515   8.170  0.7532  1.0222  0.4284
 6478SOL    HW220876   1.043   0.365   8.154 -0.6649  1.0925  0.6626
 6479SOL     OW20877   1.279   4.587   6.440  0.3815 -0.2102 -0.1456
 6479SOL    HW120878   1.270   4.493   6.456  0.3511 -0.0880  0.5490
 6479SOL    HW220879   1.206   4.627   6.488  0.4714  0.1815 -0.3303
 6480SOL     OW20880   2.448   7.798   9.600  0.7313  0.2453 -0.1881
 6480SOL    HW120881   2.379   7.857   9.630  0.7808  0.1887  0.0392
 6480SOL    HW220882   2.498   7.850   9.537  1.2054  0.6954  0.5376
 6481SOL     OW20883   3.411   2.407  11.902 -0.6053  0.5148 -0.4185
 6481SOL    HW120884   3.385   2.317  11.924 -0.5953 -0.4166 -3.7688
 6481SOL    HW220885   3.502   2.400  11.875 -0.9224  1.3220 -1.7632
 6482SOL     OW20886   1.501   3.415   2.787 -0.3052  0.7718  0.1625
 6482SOL    HW120887   1.572   3.413   2.851  0.7894  0.1980 -1.0173
 6482SOL    HW220888   1.455   3.497   2.804  2.4459  2.6556 -0.9003
 6483SOL     OW20889   6.936   2.200   9.594 -0.0368  0.0826 -0.4620
 6483SOL    HW120890   6.849   2.198   9.635 -0.0059 -0.7039 -0.4201
 6483SOL    HW220891   6.918   2.220   9.502 -0.5073 -2.4108 -0.9890
 6484SOL     OW20892   2.549   0.281   8.667  0.0980  0.0037  0.1081
 6484SOL    HW120893   2.523   0.240   8.585  0.6422  1.1143 -0.6532
 6484SOL    HW220894   2.472   0.274   8.724 -0.0523 -1.3905 -0.2454
 6485SOL     OW20895   5.394   0.276  10.172 -0.2243 -0.1320  0.4350
 6485SOL    HW120896   5.410   0.348  10.112 -1.8798  0.4572  0.6516
 6485SOL    HW220897   5.305   0.246  10.151  0.1375 -1.5872  0.8842
 6486SOL     OW20898   3.011   0.098   3.151  0.1284  0.2386 -0.5091
 6486SOL    HW120899   3.066   0.119   3.075 -0.8184 -1.3322 -1.7004
 6486SOL    HW220900   3.071   0.054   3.211  0.5321 -0.0433 -1.1010
 6487SOL     OW20901   7.349   6.860  11.491  0.2815  0.5570 -0.0103
 6487SOL    HW120902   7.271   6.911  11.515 -2.0753 -1.7844 -2.0776
 6487SOL    HW220903   7.328   6.770  11.516  2.3060 -0.1854 -0.7642
 6488SOL     OW20904   7.200   6.731   2.041 -0.0599 -0.0840 -0.0322
 6488SOL    HW120905   7.275   6.686   2.001 -0.7704 -0.0636 -1.4481
 6488SOL    HW220906   7.151   6.661   2.085  1.0289 -0.0186  1.3369
 6489SOL     OW20907   6.909   5.689   1.723 -0.0467 -0.3043 -0.5667
 6489SOL    HW120908   6.876   5.599   1.719  0.5198 -0.8516  3.1950
 6489SOL    HW220909   7.000   5.682   1.694 -0.1237 -0.8564 -0.7000
 6490SOL     OW20910   5.668   1.901   6.341  0.0638  0.5113  0.1975
 6490SOL    HW120911   5.575   1.912   6.360 -0.1186  0.1077 -0.4383
 6490SOL    HW220912   5.695   1.824   6.391  0.1292  0.7962  0.6073
 6491SOL     OW20913   7.334   1.706  11.372 -0.0537 -0.1206 -0.1912
 6491SOL    HW120914   7.340   1.616  11.340  0.7057  0.1451 -0.8409
 6491SOL    HW220915   7.243   1.731  11.356 -0.0360 -0.4667 -0.8935
 6492SOL     OW20916   5.873   6.822   2.633 -0.5513 -0.1131  0.4033
 6492SOL    HW120917   5.788   6.858   2.609  0.0775  1.7946  0.8664
 6492SOL    HW220918   5.916   6.802   2.550 -0.5771  1.1166  0.0752
 6493SOL     OW20919   5.786   2.730   9.712  0.4312  0.2293  0.0616
 6493SOL    HW120920   5.827   2.651   9.745 -1.4811 -0.4592  0.9258
 6493SOL    HW220921   5.767   2.711   9.620  0.7508  0.0117  0.0421
 6494SOL     OW20922   4.503   2.261   2.632 -0.2365 -0.3696 -0.4030
 6494SOL    HW120923   4.563   2.190   2.656  0.7729  0.4791 -0.3324
 6494SOL    HW220924   4.500   2.258   2.536 -0.4869 -0.7278 -0.3876
 6495SOL     OW20925   3.468   3.977   3.941 -0.2381  0.0853  0.1542
 6495SOL    HW120926   3.399   4.035   3.975 -0.1422  0.4549 -0.2707
 6495SOL    HW220927   3.502   4.023   3.864 -1.1215 -1.1694 -1.0538
 6496SOL     OW20928   3.813   0.057   7.862  0.0746 -0.4723  0.3078
 6496SOL    HW120929   3.822  -0.014   7.925  2.6094 -0.4241  0.0779
 6496SOL    HW220930   3.902   0.086   7.844 -0.8136  2.3021 -0.1749
 6497SOL     OW20931   5.267   2.349   2.424 -0.2738 -0.3992  0.9903
 6497SOL    HW120932   5.349   2.345   2.474  1.3787  0.8677 -1.3907
 6497SOL    HW220933   5.231   2.436   2.444  1.0405  0.6282 -0.8133
 6498SOL     OW20934   4.386   3.585  12.297 -0.6420  0.3579 -0.3300
 6498SOL    HW120935   4.300   3.611  12.330 -0.3683  0.1670  0.5762
 6498SOL    HW220936   4.432   3.553  12.375  0.4044  0.8687 -0.7286
 6499SOL     OW20937   1.213   0.610   2.938  0.1537  0.4208 -0.4480
 6499SOL    HW120938   1.210   0.672   2.865 -1.8632  1.0729  0.1167
 6499SOL    HW220939   1.126   0.615   2.977  0.8794 -0.6232  1.4303
 6500SOL     OW20940   1.301   5.315   3.417  0.0161  0.2566 -0.3378
 6500SOL    HW120941   1.347   5.338   3.499  0.0229 -1.4027  0.1583
 6500SOL    HW220942   1.280   5.400   3.378 -1.5299  1.1826  2.2186
 6501SOL     OW20943   3.266   2.658  10.242  0.4521  0.3442 -0.2800
 6501SOL    HW120944   3.202   2.623  10.180  1.1772 -1.4513 -0.0720
 6501SOL    HW220945   3.351   2.637  10.203  0.9143 -0.3245  1.0304
 6502SOL     OW20946   6.697   1.258  11.941  0.3404  0.0547  1.0724
 6502SOL    HW120947   6.607   1.284  11.921  0.3682  0.3370  1.3105
 6502SOL    HW220948   6.694   1.222  12.029  0.3276 -0.6419  0.7967
 6503SOL     OW20949   6.725   6.255   0.371 -0.0503  0.1312 -0.2713
 6503SOL    HW120950   6.688   6.200   0.440  1.0683  0.0311  0.2766
 6503SOL    HW220951   6.745   6.338   0.415  0.6345  0.0816 -0.4749
 6504SOL     OW20952   4.836   6.019   6.502  0.3100  0.1706  0.2903
 6504SOL    HW120953   4.789   5.941   6.530 -0.7906  0.1168 -1.5071
 6504SOL    HW220954   4.926   6.004   6.529 -0.1676 -1.0203  1.3175
 6505SOL     OW20955   6.287   3.659   3.164  0.7738  0.2073  0.6129
 6505SOL    HW120956   6.332   3.743   3.175  1.8960 -0.4814  1.4321
 6505SOL    HW220957   6.294   3.616   3.250  2.5245 -1.8366 -0.4643
 6506SOL     OW20958   7.271   1.548   7.715  0.3427  0.0856 -0.5934
 6506SOL    HW120959   7.238   1.562   7.626  2.2892  0.3235 -1.3213
 6506SOL    HW220960   7.284   1.636   7.749  0.7375 -0.0037 -0.5159
 6507SOL     OW20961   6.162   1.142   0.450  0.0725  0.2362 -0.0440
 6507SOL    HW120962   6.161   1.072   0.516  0.4843  0.6691  0.4238
 6507SOL    HW220963   6.083   1.193   0.469 -0.6667 -0.5522 -0.8900
 6508SOL     OW20964   4.346   6.846  10.429 -0.0290  0.3478 -0.1329
 6508SOL    HW120965   4.393   6.780  10.377  0.1843  0.3321  0.0732
 6508SOL    HW220966   4.387   6.840  10.516 -0.9682 -0.2409  0.2864
 6509SOL     OW20967   1.720   6.229  10.206 -0.2982 -0.2240 -0.3269
 6509SOL    HW120968   1.676   6.179  10.138  1.1271 -1.4047 -0.4117
 6509SOL    HW220969   1.689   6.319  10.193 -3.5569 -1.1086  0.3376
 6510SOL     OW20970   1.586   1.712   2.766 -0.0605 -0.9055  0.3222
 6510SOL    HW120971   1.517   1.665   2.812 -0.6912 -0.7510 -0.4601
 6510SOL    HW220972   1.649   1.735   2.835 -1.0033 -0.6402  1.1110
 6511SOL     OW20973   4.166   2.791  12.194 -0.1770 -0.2170 -0.0556
 6511SOL    HW120974   4.260   2.791  12.176 -0.5943 -2.0166 -2.8275
 6511SOL    HW220975   4.126   2.818  12.112 -2.1328  0.4381  1.0551
 6512SOL     OW20976   0.026   5.548   4.917  0.0120 -0.2409  0.7490
 6512SOL    HW120977  -0.067   5.542   4.893  0.7493 -0.2336 -2.4406
 6512SOL    HW220978   0.037   5.638   4.947 -1.1639 -0.5055  2.0889
 6513SOL     OW20979   5.785   6.564   4.904  0.0285 -0.2096 -0.3766
 6513SOL    HW120980   5.709   6.510   4.884 -0.4663  0.4580 -0.3323
 6513SOL    HW220981   5.814   6.598   4.820  1.5301 -2.0446 -0.6795
 6514SOL     OW20982   3.911   6.022   8.689 -0.6964 -0.2622  0.4193
 6514SOL    HW120983   3.946   5.939   8.721 -1.9904 -0.7363  0.6793
 6514SOL    HW220984   3.830   6.034   8.738 -0.8797  0.8130 -0.1208
 6515SOL     OW20985   0.238   5.213  11.633 -0.1954 -0.2473  0.4902
 6515SOL    HW120986   0.326   5.248  11.622 -1.2255  2.4452  0.0642
 6515SOL    HW220987   0.212   5.186  11.545 -0.5808  1.1164  0.1567
 6516SOL     OW20988   2.234   7.105  10.275  0.1624 -0.2923  0.1242
 6516SOL    HW120989   2.283   7.184  10.254 -1.4473  0.4156 -1.2178
 6516SOL    HW220990   2.277   7.070  10.353  2.1730  0.7691 -0.4426
 6517SOL     OW20991   5.193   4.624   9.812  0.7723  0.1498  0.2248
 6517SOL    HW120992   5.150   4.690   9.758  2.5140  0.1141 -1.3074
 6517SOL    HW220993   5.125   4.593   9.871 -0.5583  2.0080 -0.2459
 6518SOL     OW20994   5.861   2.408   5.392 -0.2619  0.4320 -0.2317
 6518SOL    HW120995   5.786   2.465   5.406 -0.0261  1.5647 -2.9362
 6518SOL    HW220996   5.825   2.333   5.344  0.0868  0.1888 -0.1162
 6519SOL     OW20997   4.321   0.623   0.537 -0.3878 -0.6416  0.2558
 6519SOL    HW120998   4.374   0.690   0.492  0.9749 -0.8537  1.4670
 6519SOL    HW220999   4.279   0.671   0.609 -0.7220 -0.7687  0.1462
 6520SOL     OW21000   1.834   2.028   7.927  0.2268 -0.3319 -0.0925
 6520SOL    HW121001   1.910   2.001   7.978 -0.6388 -2.1324  0.3316
 6520SOL    HW221002   1.792   2.096   7.980  1.3764  0.5197 -0.2315
 6521SOL     OW21003   1.868   6.122   2.848 -0.0983  0.6709  0.0074
 6521SOL    HW121004   1.838   6.057   2.912 -2.9110  0.8794 -0.9721
 6521SOL    HW221005   1.890   6.070   2.770  0.2943  0.6920  0.1003
 6522SOL     OW21006   0.738   1.359   2.120 -0.0383 -0.6737  0.2563
 6522SOL    HW121007   0.737   1.363   2.216 -3.1004  2.1545  0.2750
 6522SOL    HW221008   0.750   1.266   2.100 -1.1240 -1.6121  3.4270
 6523SOL     OW21009   5.458   4.208  10.880  0.5048  0.2017  0.3561
 6523SOL    HW121010   5.472   4.154  10.959  1.7372  2.2153  1.6007
 6523SOL    HW221011   5.416   4.148  10.818 -2.9497 -0.8727  3.3599
 6524SOL     OW21012   1.234   4.337   8.270  0.6686  0.6855  0.3655
 6524SOL    HW121013   1.255   4.360   8.179 -1.1292  1.8726  0.2059
 6524SOL    HW221014   1.150   4.293   8.265  0.8150  0.2708  1.4187
 6525SOL     OW21015   3.598   2.513  10.636 -0.3308 -0.2576 -0.0143
 6525SOL    HW121016   3.513   2.516  10.592  0.5163  1.5297 -1.6321
 6525SOL    HW221017   3.604   2.597  10.682  0.7906 -0.1235 -0.3894
 6526SOL     OW21018   7.504   6.157   7.678 -0.3069  0.1341  0.3052
 6526SOL    HW121019   7.591   6.157   7.716  1.1791  0.8895 -2.7554
 6526SOL    HW221020   7.470   6.244   7.695  0.1376  0.3130  0.2830
 6527SOL     OW21021   6.133   4.645   4.700 -0.1489  0.1824  0.1000
 6527SOL    HW121022   6.043   4.619   4.681  0.4420 -0.6684 -1.7913
 6527SOL    HW221023   6.146   4.622   4.792 -2.3629  1.9353  0.9376
 6528SOL     OW21024   2.028   2.457  11.528  0.3523 -0.2583  0.1986
 6528SOL    HW121025   2.061   2.415  11.448  1.5226  0.6133  0.2070
 6528SOL    HW221026   1.994   2.541  11.498 -1.7912 -1.0470  0.2209
 6529SOL     OW21027   3.980   6.140  12.095  0.0765  0.2845 -0.2926
 6529SOL    HW121028   4.043   6.136  12.167 -0.3470  0.7434  0.1159
 6529SOL    HW221029   3.917   6.207  12.122 -1.5381 -1.2820  0.0804
 6530SOL     OW21030   5.218   3.148   4.472  0.5843 -0.6591 -0.3250
 6530SOL    HW121031   5.263   3.068   4.445  0.5805 -0.1142 -2.0682
 6530SOL    HW221032   5.132   3.118   4.501  1.0502 -1.4147  0.3167
 6531SOL     OW21033   1.545   6.867   8.091  0.3061  0.4202  0.4209
 6531SOL    HW121034   1.495   6.797   8.050 -0.4697  1.5146 -0.5793
 6531SOL    HW221035   1.587   6.826   8.167  0.7123 -1.3602 -0.7052
 6532SOL     OW21036   1.870   6.119  11.946 -0.2300  0.6596  0.5110
 6532SOL    HW121037   1.790   6.084  11.906  0.0603  0.4634  0.0945
 6532SOL    HW221038   1.941   6.075  11.900  0.1377 -1.6710  3.0321
 6533SOL     OW21039   3.056   7.137  10.844  0.4242 -0.6675  0.1310
 6533SOL    HW121040   3.054   7.174  10.932 -2.5653  0.9437 -0.5040
 6533SOL    HW221041   3.149   7.132  10.823  1.1964  3.7776  1.4360
 6534SOL     OW21042   0.175   6.942  11.918  0.1603  0.0903 -0.1779
 6534SOL    HW121043   0.206   7.025  11.883 -0.7378  0.4301 -0.1904
 6534SOL    HW221044   0.248   6.910  11.972  0.1562  1.3483  0.5989
 6535SOL     OW21045   2.113   2.652   0.911 -0.5189  0.4667  0.6652
 6535SOL    HW121046   2.070   2.573   0.879 -2.2149  0.9740  1.5635
 6535SOL    HW221047   2.097   2.717   0.842  1.8041 -0.1914 -0.5795
 6536SOL     OW21048   0.108   2.999  10.042 -0.5068  0.0071 -0.2242
 6536SOL    HW121049   0.145   2.990  10.129  0.2658  1.3269 -0.4010
 6536SOL    HW221050   0.183   3.013   9.985 -1.1467  1.4992 -0.7636
 6537SOL     OW21051   0.442   6.236   3.240 -0.7066  0.5000  0.1083
 6537SOL    HW121052   0.480   6.154   3.273  0.6922  0.5342 -1.2973
 6537SOL    HW221053   0.352   6.235   3.272 -0.8953 -1.8716 -0.3141
 6538SOL     OW21054   7.416   1.654   5.262 -0.1333 -0.1345  0.0451
 6538SOL    HW121055   7.457   1.730   5.303 -0.8193  0.0496  0.4117
 6538SOL    HW221056   7.324   1.679   5.252 -0.3224 -0.8396 -0.0185
 6539SOL     OW21057   6.241   2.250   4.246  0.0750 -0.1999  0.3916
 6539SOL    HW121058   6.147   2.257   4.257 -0.0962  1.0794 -1.4001
 6539SOL    HW221059   6.278   2.307   4.312 -0.5650  1.6188 -0.7492
 6540SOL     OW21060   0.937   0.717  12.107 -0.3082  0.2113 -0.1372
 6540SOL    HW121061   1.000   0.646  12.115 -1.1962 -0.8305 -1.7445
 6540SOL    HW221062   0.854   0.673  12.088 -0.9928  1.6470 -0.6629
 6541SOL     OW21063   6.634   6.880   5.841 -0.6607 -0.0442 -0.1138
 6541SOL    HW121064   6.709   6.854   5.787 -2.2310 -1.1742 -1.9073
 6541SOL    HW221065   6.639   6.975   5.845  2.1381 -0.1579  1.8700
 6542SOL     OW21066   0.948   2.993   3.596 -0.3635 -0.3968 -0.0665
 6542SOL    HW121067   1.001   3.072   3.599 -1.5798  0.4367  0.3328
 6542SOL    HW221068   0.893   2.998   3.674 -0.8545 -1.3532 -0.3355
 6543SOL     OW21069   1.354   7.233   0.754 -0.5241 -0.5987 -0.2063
 6543SOL    HW121070   1.385   7.250   0.843  1.3892  0.0890 -0.9685
 6543SOL    HW221071   1.421   7.178   0.715 -0.3692  0.6790 -1.8293
 6544SOL     OW21072   2.567   5.316   6.357 -0.2722  0.1670 -0.2588
 6544SOL    HW121073   2.523   5.248   6.306 -0.8241 -0.4501  0.9977
 6544SOL    HW221074   2.557   5.288   6.449 -0.3092  1.8273  0.2721
 6545SOL     OW21075   2.394   7.514   4.797 -0.5036 -0.0081 -0.3996
 6545SOL    HW121076   2.302   7.503   4.775 -1.7233  2.2478  2.7681
 6545SOL    HW221077   2.436   7.541   4.716 -2.8427 -0.0267 -1.6843
 6546SOL     OW21078   6.577   5.932   9.447  0.2386 -0.2600  0.0533
 6546SOL    HW121079   6.494   5.905   9.409  0.2170 -1.0589  0.6293
 6546SOL    HW221080   6.634   5.855   9.437  0.5740 -0.0944  0.6068
 6547SOL     OW21081   7.720   0.760   7.796  0.7481  0.0834  0.0724
 6547SOL    HW121082   7.795   0.742   7.853  1.0990  0.4571 -0.2698
 6547SOL    HW221083   7.742   0.716   7.714  0.0435 -0.8371  0.3510
 6548SOL     OW21084   7.633   6.599   9.896  0.1848 -0.2067  0.3433
 6548SOL    HW121085   7.632   6.634   9.807 -0.5009  0.2041  0.5075
 6548SOL    HW221086   7.617   6.675   9.952 -0.8813 -0.7033  0.7273
 6549SOL     OW21087   6.845   6.555   8.826  0.2031  0.1927  0.5055
 6549SOL    HW121088   6.760   6.535   8.864  1.0009 -1.9627  1.3052
 6549SOL    HW221089   6.835   6.535   8.733  0.2420 -1.7478  0.8686
 6550SOL     OW21090   3.895   2.138   6.393 -0.2912  0.4289 -0.0219
 6550SOL    HW121091   3.949   2.095   6.459 -1.3206  0.8820  1.1593
 6550SOL    HW221092   3.957   2.186   6.338  0.5494  0.4657  0.9365
 6551SOL     OW21093   3.732   4.215   1.725  0.5181  0.1061 -0.2895
 6551SOL    HW121094   3.686   4.146   1.677  1.1646  0.2092 -1.0618
 6551SOL    HW221095   3.664   4.281   1.742  0.1083 -0.2895 -0.3612
 6552SOL     OW21096   2.283   2.859   8.010 -0.4815 -0.5074 -0.0653
 6552SOL    HW121097   2.265   2.787   8.071 -0.7482 -0.4367 -0.0600
 6552SOL    HW221098   2.262   2.938   8.061  0.7927 -0.3701  0.2847
 6553SOL     OW21099   1.271   2.042   5.422 -0.1744  0.1675  0.0034
 6553SOL    HW121100   1.246   1.958   5.383 -1.3961 -0.2814  1.6633
 6553SOL    HW221101   1.283   2.100   5.347 -2.6041 -0.6160 -1.0929
 6554SOL     OW21102   3.646   7.664   7.919 -0.1372  0.3510 -0.4765
 6554SOL    HW121103   3.582   7.603   7.882 -0.4439  0.1360  0.3726
 6554SOL    HW221104   3.679   7.714   7.844 -0.8081  0.0013 -1.0117
 6555SOL     OW21105   7.107   6.867  11.125  0.0942  0.4209 -0.0085
 6555SOL    HW121106   7.040   6.901  11.066  3.0809  1.3722 -3.1293
 6555SOL    HW221107   7.093   6.772  11.125  0.2829  0.3347 -2.7622
 6556SOL     OW21108   4.586   4.764   7.271  0.3183 -0.7750  0.1031
 6556SOL    HW121109   4.531   4.686   7.261 -0.1337 -0.4379 -0.0991
 6556SOL    HW221110   4.576   4.811   7.188 -0.1463 -0.0455  0.5569
 6557SOL     OW21111   6.026   3.076  11.157  0.0320 -0.0769  0.2253
 6557SOL    HW121112   6.010   2.992  11.201 -0.0932  0.3602  1.0270
 6557SOL    HW221113   6.090   3.055  11.089  1.3996 -0.5039  1.5752
 6558SOL     OW21114   6.309   2.648  11.301 -0.2708 -0.2476 -0.0077
 6558SOL    HW121115   6.254   2.666  11.378  0.0870 -3.0973  1.0564
 6558SOL    HW221116   6.281   2.712  11.236  0.5399  3.4561  2.9276
 6559SOL     OW21117   0.903   4.394   8.047  0.5570 -0.4633 -0.3693
 6559SOL    HW121118   0.953   4.476   8.048  0.1195 -0.1981  0.4074
 6559SOL    HW221119   0.881   4.381   7.954  1.8170 -0.4437 -0.6918
 6560SOL     OW21120   7.813   3.462   3.054  0.8604  0.2692 -0.1821
 6560SOL    HW121121   7.837   3.434   3.142  2.4808 -0.8761 -0.9251
 6560SOL    HW221122   7.717   3.467   3.055  0.8980  1.4577  1.9372
 6561SOL     OW21123   3.597   6.693   0.794 -0.0601  0.1241  0.3374
 6561SOL    HW121124   3.605   6.787   0.779  0.4054 -0.1451 -1.2997
 6561SOL    HW221125   3.516   6.683   0.844 -0.9134  1.2902 -0.7721
 6562SOL     OW21126   0.977   6.593   2.193  0.4966 -0.2398 -0.3617
 6562SOL    HW121127   0.918   6.667   2.209  1.1194  0.2465 -0.2809
 6562SOL    HW221128   0.920   6.516   2.193 -0.0028  0.1203  0.6965
 6563SOL     OW21129   2.010   7.145  11.896  0.0727 -0.7239 -0.2680
 6563SOL    HW121130   1.925   7.148  11.941 -0.7309  0.3785 -1.7682
 6563SOL    HW221131   2.067   7.203  11.947 -0.6981  0.1899 -0.4258
 6564SOL     OW21132   2.512   6.399   3.958 -0.3914  0.4020  0.4066
 6564SOL    HW121133   2.594   6.351   3.947 -0.7559 -0.3202  0.7796
 6564SOL    HW221134   2.533   6.489   3.931  0.3550  0.0868 -0.0918
 6565SOL     OW21135   0.374   5.113   1.163  0.0539  1.0647 -0.2549
 6565SOL    HW121136   0.291   5.107   1.212 -0.4919 -0.3993 -1.2542
 6565SOL    HW221137   0.418   5.030   1.182  0.7646  1.3451 -0.6598
 6566SOL     OW21138   6.323   5.945   9.944 -0.2783 -0.2738  0.0560
 6566SOL    HW121139   6.269   6.017   9.975  0.9013  0.8261 -0.3480
 6566SOL    HW221140   6.365   5.979   9.865  1.6194 -0.7524  0.7864
 6567SOL     OW21141   7.918   7.696   5.892 -0.0450  0.6169 -0.3947
 6567SOL    HW121142   7.913   7.772   5.835  1.5879  1.5120  0.5603
 6567SOL    HW221143   7.860   7.716   5.965  0.8338  1.2476  0.1491
 6568SOL     OW21144   7.175   4.389   3.208 -0.4570 -0.1657  0.1481
 6568SOL    HW121145   7.145   4.438   3.284  0.4843 -0.9304  1.0267
 6568SOL    HW221146   7.181   4.455   3.139  0.9636  1.0343  1.3523
 6569SOL     OW21147   6.259   3.661   5.532 -0.1376  0.3956  0.0648
 6569SOL    HW121148   6.214   3.583   5.498 -2.2670  0.3417  2.6572
 6569SOL    HW221149   6.258   3.723   5.460 -0.2484 -1.2217 -1.4021
 6570SOL     OW21150   2.731   2.269  10.630  0.4809 -0.2209  0.6245
 6570SOL    HW121151   2.691   2.317  10.702  0.0350  2.3772 -1.1964
 6570SOL    HW221152   2.662   2.210  10.599  0.7324 -1.4837  2.3217
 6571SOL     OW21153   3.731   5.259   1.987  0.1198  0.3606  0.0701
 6571SOL    HW121154   3.661   5.229   2.045 -0.2616  0.9576 -0.0745
 6571SOL    HW221155   3.686   5.287   1.907  0.4269  1.5810  0.3021
 6572SOL     OW21156   6.225   6.529   4.109  0.4702  0.3206 -0.1916
 6572SOL    HW121157   6.220   6.602   4.171  0.2537  1.0851 -1.0854
 6572SOL    HW221158   6.212   6.451   4.163  1.9978  0.8255  0.9880
 6573SOL     OW21159   5.416   5.342  10.101 -0.1505 -0.1525  0.2580
 6573SOL    HW121160   5.383   5.298  10.022 -1.9422  0.9381  0.3294
 6573SOL    HW221161   5.510   5.324  10.101  0.2501  1.1237 -3.0049
 6574SOL     OW21162   0.522   4.770   4.580 -0.0397  0.4465 -0.0818
 6574SOL    HW121163   0.507   4.677   4.596 -2.7861  0.4470 -1.9278
 6574SOL    HW221164   0.469   4.815   4.646  0.5178  0.6839  0.2045
 6575SOL     OW21165   4.023   3.775   0.314  0.4718  0.4627  0.1646
 6575SOL    HW121166   3.989   3.697   0.358  2.2909  0.4697  1.7031
 6575SOL    HW221167   4.024   3.752   0.221  0.4583 -1.1414  0.5418
 6576SOL     OW21168   5.666   0.095   8.920 -0.0821  0.3055  0.2817
 6576SOL    HW121169   5.593   0.102   8.981 -0.2948  2.6136 -0.1486
 6576SOL    HW221170   5.736   0.053   8.971 -0.6954  0.9284  1.6738
 6577SOL     OW21171   6.940   0.642   3.486  0.0786 -0.0937  0.0792
 6577SOL    HW121172   6.854   0.650   3.443  0.2169  0.0234 -0.1815
 6577SOL    HW221173   6.981   0.728   3.471  1.0072 -0.7645 -1.4634
 6578SOL     OW21174   6.958   3.202   9.070  0.1270 -0.5006 -0.1077
 6578SOL    HW121175   6.879   3.255   9.079 -0.0037 -0.7867  0.4364
 6578SOL    HW221176   7.028   3.265   9.052 -0.6890 -0.4210 -3.8134
 6579SOL     OW21177   7.747   5.078   6.042 -0.6266  0.2553 -0.3207
 6579SOL    HW121178   7.787   5.153   6.086  0.7021 -0.9787  0.7176
 6579SOL    HW221179   7.809   5.055   5.973 -1.3967  0.5542 -1.1217
 6580SOL     OW21180   4.110   5.954   7.870  0.0344  0.4482 -0.8080
 6580SOL    HW121181   4.197   5.991   7.856  0.2649 -0.3310 -1.4901
 6580SOL    HW221182   4.052   6.030   7.876  0.8600  1.0299  0.5195
 6581SOL     OW21183   0.241   0.025   8.296 -0.3813 -0.2918  0.4570
 6581SOL    HW121184   0.147   0.028   8.277 -0.2605 -0.1562 -0.1394
 6581SOL    HW221185   0.249  -0.035   8.370 -0.6910 -2.2450 -1.0170
 6582SOL     OW21186   0.932   0.087  10.338  0.3658 -0.3856 -0.1649
 6582SOL    HW121187   0.854   0.109  10.285  0.0869  0.2939  0.5110
 6582SOL    HW221188   0.923   0.140  10.417  2.2594  0.8273 -0.6917
 6583SOL     OW21189   7.837   2.747   8.175  0.2580 -0.0247  0.2566
 6583SOL    HW121190   7.899   2.721   8.243 -1.0509 -1.1787  1.0822
 6583SOL    HW221191   7.888   2.799   8.114  2.0557 -1.0382  0.8262
 6584SOL     OW21192   7.230   3.156   1.036 -0.0173 -0.6068  0.4411
 6584SOL    HW121193   7.270   3.231   1.079  0.7624 -0.9771  0.3832
 6584SOL    HW221194   7.182   3.193   0.962 -1.1238  0.0030  1.4342
 6585SOL     OW21195   3.813   7.440   7.028 -1.0101  0.0914  0.3674
 6585SOL    HW121196   3.823   7.354   7.069 -0.9899 -0.3799 -0.5949
 6585SOL    HW221197   3.719   7.458   7.031 -0.9370  0.3650  1.2042
 6586SOL     OW21198   7.894   6.460   9.865 -0.1142 -0.1512 -0.9673
 6586SOL    HW121199   7.908   6.377   9.910  1.3517 -0.0471 -1.1945
 6586SOL    HW221200   7.825   6.504   9.915  1.8235  0.2214  1.5746
 6587SOL     OW21201   0.211   5.316  10.623 -0.1575  0.3933 -0.2539
 6587SOL    HW121202   0.305   5.320  10.609  0.1061  1.2581  1.5569
 6587SOL    HW221203   0.200   5.260  10.699 -1.2712 -1.2009 -1.5250
 6588SOL     OW21204   4.630   5.686   3.174 -0.2534 -0.4116 -0.0130
 6588SOL    HW121205   4.549   5.643   3.147 -1.1676  1.5202 -0.5323
 6588SOL    HW221206   4.637   5.668   3.268 -2.4430  1.0860  0.5088
 6589SOL     OW21207   3.154   5.641  11.035  0.0857 -0.1890 -0.1686
 6589SOL    HW121208   3.093   5.661  11.107  0.6742  0.6783  0.0964
 6589SOL    HW221209   3.197   5.560  11.063  0.9998  0.6433  0.9282
 6590SOL     OW21210   6.694   6.912   1.387 -0.9623 -0.3389  0.2717
 6590SOL    HW121211   6.667   6.832   1.342  0.0928 -0.1091 -0.8183
 6590SOL    HW221212   6.761   6.883   1.449  0.2644 -0.2045 -0.9216
 6591SOL     OW21213   7.210   5.883  12.073  0.3866 -0.0595  0.4466
 6591SOL    HW121214   7.197   5.947  12.003  0.3964  0.5017  0.9475
 6591SOL    HW221215   7.284   5.917  12.123  0.0553 -0.1748  1.0299
 6592SOL     OW21216   5.682   0.103   2.347 -0.3476  0.1444  0.5283
 6592SOL    HW121217   5.618   0.057   2.401 -0.8585  1.4509  1.0780
 6592SOL    HW221218   5.731   0.157   2.410 -1.8810  2.7872 -0.4155
 6593SOL     OW21219   2.380   6.215   8.805 -0.4114  0.6731 -0.4317
 6593SOL    HW121220   2.310   6.157   8.773  0.7552  0.3292 -2.5734
 6593SOL    HW221221   2.404   6.267   8.729  0.4075  2.1176  0.7711
 6594SOL     OW21222   6.394   1.712   5.779  0.2751 -0.4337 -0.3134
 6594SOL    HW121223   6.437   1.657   5.715 -1.0277 -0.8127 -0.8850
 6594SOL    HW221224   6.301   1.695   5.767 -0.0782  0.8250  0.4661
 6595SOL     OW21225   6.251   6.420   5.461 -0.3092  0.0197 -0.2597
 6595SOL    HW121226   6.235   6.366   5.384  1.3680 -0.4687 -0.3129
 6595SOL    HW221227   6.339   6.455   5.448 -0.0047 -0.0369  1.4028
 6596SOL     OW21228   2.159   0.835   5.922  0.4945 -0.9698 -0.3082
 6596SOL    HW121229   2.129   0.842   6.013  0.1706  1.2459 -0.5403
 6596SOL    HW221230   2.083   0.803   5.874 -0.2463  0.5582 -0.2156
 6597SOL     OW21231   5.865   5.175   8.474 -0.1370  0.0182 -0.0491
 6597SOL    HW121232   5.917   5.221   8.408 -0.0204  0.2313  0.1916
 6597SOL    HW221233   5.921   5.172   8.551 -0.0274 -0.7970 -0.1571
 6598SOL     OW21234   2.405   7.590   1.539 -0.1451  0.2499 -0.3386
 6598SOL    HW121235   2.311   7.604   1.532 -0.3655 -0.7268  0.4233
 6598SOL    HW221236   2.439   7.609   1.452 -1.3426 -1.4580 -1.2397
 6599SOL     OW21237   1.451   5.197   0.771  0.7467  0.0260  0.1500
 6599SOL    HW121238   1.465   5.102   0.776  1.6722  0.1319 -0.2337
 6599SOL    HW221239   1.356   5.208   0.770  0.6378 -0.9070 -0.0209
 6600SOL     OW21240   3.995   3.412   9.919  0.2106  0.1754  0.3214
 6600SOL    HW121241   3.901   3.430   9.930  0.3183  2.3689 -1.6341
 6600SOL    HW221242   4.034   3.499   9.907  2.3777 -0.7669  0.2120
 6601SOL     OW21243   7.171   2.842  11.767  0.0994 -0.5324 -0.0269
 6601SOL    HW121244   7.245   2.788  11.741  0.8184  1.7412 -3.4951
 6601SOL    HW221245   7.120   2.852  11.686 -1.2323  1.9733  1.0166
 6602SOL     OW21246   3.600   2.249   4.082  0.0272  0.1076  0.1072
 6602SOL    HW121247   3.643   2.261   4.166  0.0625 -0.2954  0.1517
 6602SOL    HW221248   3.663   2.198   4.030 -1.4706 -3.0854  1.1452
 6603SOL     OW21249   2.501   5.585   0.040  0.1336  0.2726  0.0732
 6603SOL    HW121250   2.557   5.657   0.011  0.6900  0.7582  2.1863
 6603SOL    HW221251   2.542   5.507   0.005 -0.9359  0.9322 -2.9924
 6604SOL     OW21252   6.457   6.314   3.974  0.0024  0.1626  0.0632
 6604SOL    HW121253   6.470   6.344   3.885 -2.2107  0.7850 -0.1120
 6604SOL    HW221254   6.480   6.388   4.029  1.5915 -0.2958  0.0703
 6605SOL     OW21255   2.455   2.159   5.354 -0.2273 -0.5572 -0.1376
 6605SOL    HW121256   2.368   2.187   5.323  0.3383  0.4149 -0.9169
 6605SOL    HW221257   2.470   2.212   5.433 -0.7851 -1.5132  0.6272
 6606SOL     OW21258   7.839   1.868  10.248  0.6946 -0.4119  0.3268
 6606SOL    HW121259   7.790   1.943  10.214  3.0917  0.9738 -0.2597
 6606SOL    HW221260   7.840   1.805  10.176 -1.8439 -1.3735  1.0224
 6607SOL     OW21261   5.340   6.943   1.601  0.3063 -0.3548  0.1949
 6607SOL    HW121262   5.270   7.008   1.592  1.3754  1.1169  1.8382
 6607SOL    HW221263   5.306   6.882   1.666 -0.3669 -1.0071 -0.7425
 6608SOL     OW21264   5.648   3.881   0.913  0.5691 -0.0905 -0.6536
 6608SOL    HW121265   5.697   3.957   0.883 -0.4236  0.3735 -1.1404
 6608SOL    HW221266   5.642   3.892   1.008 -1.0457  1.3769 -0.8796
 6609SOL     OW21267   4.664   2.516   7.178  1.0889 -0.4731 -0.2186
 6609SOL    HW121268   4.636   2.460   7.105  0.1534 -1.6592  1.0174
 6609SOL    HW221269   4.587   2.570   7.197  1.5829  0.3848 -0.5764
 6610SOL     OW21270   4.088   1.753   7.139 -0.1689  0.0529  0.1570
 6610SOL    HW121271   4.106   1.826   7.080  0.1384  0.0531  0.2501
 6610SOL    HW221272   4.141   1.681   7.105 -0.6873 -0.2142 -0.1040
 6611SOL     OW21273   6.015   7.027   0.665 -0.6301  0.3073 -0.0055
 6611SOL    HW121274   5.985   7.051   0.752  0.3326  4.1718 -0.5218
 6611SOL    HW221275   6.077   7.096   0.642  1.1575 -2.0156 -2.7444
 6612SOL     OW21276   1.685   3.685   7.890  0.1845  0.8449  0.0012
 6612SOL    HW121277   1.639   3.660   7.970 -0.1575 -1.0140 -0.7140
 6612SOL    HW221278   1.774   3.707   7.918 -0.2344  1.2930  1.0087
 6613SOL     OW21279   3.462   0.510   9.174 -0.4278  0.4285 -0.2537
 6613SOL    HW121280   3.481   0.507   9.081 -3.4626 -2.3929 -0.9379
 6613SOL    HW221281   3.474   0.602   9.198  0.5871  1.2050 -3.3446
 6614SOL     OW21282   7.729   4.006   7.895 -0.6657  0.2055  0.1820
 6614SOL    HW121283   7.720   3.951   7.973  1.4942 -3.0232 -1.6187
 6614SOL    HW221284   7.811   4.055   7.909 -0.1012 -0.6256 -0.1692
 6615SOL     OW21285   7.155   7.779   1.248  0.0339 -0.1585 -0.5622
 6615SOL    HW121286   7.138   7.765   1.341 -2.4841 -1.6808 -1.1439
 6615SOL    HW221287   7.218   7.711   1.224 -0.2522 -0.5630 -0.1873
 6616SOL     OW21288   2.307   5.816   4.615 -0.1598 -0.4113 -0.2199
 6616SOL    HW121289   2.307   5.873   4.538  0.5761 -2.8533 -2.1590
 6616SOL    HW221290   2.391   5.832   4.657  0.0494 -0.0716 -0.7551
 6617SOL     OW21291   7.100   6.975   6.197  0.3743  0.0682 -0.3841
 6617SOL    HW121292   7.096   7.069   6.214 -1.4150  0.2091 -1.3443
 6617SOL    HW221293   7.045   6.962   6.120 -0.9328 -1.9984  0.8001
 6618SOL     OW21294   7.067   5.893  11.556 -0.2077 -0.1654  0.1129
 6618SOL    HW121295   7.132   5.838  11.602 -1.2900 -0.8084  0.9296
 6618SOL    HW221296   7.041   5.958  11.621 -0.8040 -0.2744 -0.0120
 6619SOL     OW21297   6.276   2.585   7.841 -0.0065 -0.2672  0.0411
 6619SOL    HW121298   6.239   2.550   7.922  3.1480  1.4873  2.4550
 6619SOL    HW221299   6.369   2.595   7.859  0.6749  1.2467 -3.4701
 6620SOL     OW21300   7.722   5.205   2.849 -0.2456 -0.2487 -0.1066
 6620SOL    HW121301   7.656   5.273   2.863 -0.3350 -0.4878  0.6507
 6620SOL    HW221302   7.760   5.227   2.764 -0.7582  0.3426 -0.1941
 6621SOL     OW21303   2.550   6.310   6.369  0.0805  0.3171  0.4156
 6621SOL    HW121304   2.502   6.231   6.346  0.3503  0.5457 -1.0198
 6621SOL    HW221305   2.634   6.302   6.323  0.0265  1.5277  0.0777
 6622SOL     OW21306   1.484   2.226  10.154 -0.3090 -0.2330 -0.1655
 6622SOL    HW121307   1.410   2.180  10.114 -0.6675  0.7980 -0.7422
 6622SOL    HW221308   1.443   2.296  10.206  0.2051 -0.7830  1.0128
 6623SOL     OW21309   6.159   7.016   5.275  0.4970  0.2963 -0.2629
 6623SOL    HW121310   6.190   7.018   5.184  1.8427  0.6762  0.1826
 6623SOL    HW221311   6.154   6.923   5.296 -0.3248  0.1934 -0.8856
 6624SOL     OW21312   2.899   1.079  10.240  0.2612 -0.1054 -0.5682
 6624SOL    HW121313   2.844   1.000  10.240  0.4440 -0.2371  0.0065
 6624SOL    HW221314   2.944   1.077  10.325 -0.2865  1.0021 -0.2241
 6625SOL     OW21315   5.236   4.593   7.197  0.0863  0.2318 -0.8155
 6625SOL    HW121316   5.314   4.587   7.251  0.1431  1.7368 -0.7018
 6625SOL    HW221317   5.170   4.542   7.245  0.7274 -0.2756 -0.4542
 6626SOL     OW21318   5.847   3.986  11.496 -0.2516  0.6044  0.1042
 6626SOL    HW121319   5.883   4.055  11.440 -1.1398 -0.2388 -1.5844
 6626SOL    HW221320   5.789   4.032  11.556  0.8456  1.5534  0.4900
 6627SOL     OW21321   5.722   5.610  10.171 -0.0795  0.3425  0.2995
 6627SOL    HW121322   5.629   5.634  10.167  0.3124  1.7554 -1.9325
 6627SOL    HW221323   5.722   5.521  10.205 -2.2884  0.1886  0.0286
 6628SOL     OW21324   7.818   4.755  11.429  0.0270  0.1743 -0.6432
 6628SOL    HW121325   7.832   4.846  11.455  2.2295 -0.9205  2.5270
 6628SOL    HW221326   7.899   4.730  11.384 -0.5074 -0.3184 -1.3611
 6629SOL     OW21327   5.621   7.270  10.743  0.4080 -0.4190  0.1406
 6629SOL    HW121328   5.699   7.299  10.790  0.0728 -0.4930  0.7566
 6629SOL    HW221329   5.568   7.225  10.809 -0.1939 -0.2999 -0.2483
 6630SOL     OW21330   2.237   0.838   1.288  0.2670 -0.0000 -0.0186
 6630SOL    HW121331   2.293   0.892   1.345  1.0323  0.6905 -1.3866
 6630SOL    HW221332   2.249   0.874   1.201 -0.9121 -1.0274 -0.6364
 6631SOL     OW21333   2.035   6.217   2.307  0.2294 -0.2773 -0.6102
 6631SOL    HW121334   2.070   6.130   2.322 -0.2082 -0.5190 -0.9602
 6631SOL    HW221335   2.000   6.215   2.218 -1.8807 -0.4999  0.1476
 6632SOL     OW21336   5.798   7.736   0.562  0.4255  0.0604  0.9142
 6632SOL    HW121337   5.767   7.666   0.505  2.3793 -1.7532  1.9787
 6632SOL    HW221338   5.721   7.758   0.616 -0.7483  0.1280 -0.6987
 6633SOL     OW21339   2.849   6.105  12.119 -0.2759  0.2571  0.5473
 6633SOL    HW121340   2.763   6.076  12.147 -0.2582  0.6472  1.0056
 6633SOL    HW221341   2.856   6.195  12.149 -0.8222  1.2006 -1.8989
 6634SOL     OW21342   6.615   4.819  11.651  0.0599 -0.1249 -0.1430
 6634SOL    HW121343   6.689   4.828  11.711  1.1446 -1.1280 -1.2622
 6634SOL    HW221344   6.644   4.862  11.570 -0.8675  0.1012 -0.3659
 6635SOL     OW21345   0.297   7.649   0.696  0.3636  0.3396 -0.5476
 6635SOL    HW121346   0.286   7.641   0.602 -0.1026 -0.3801 -0.4398
 6635SOL    HW221347   0.228   7.711   0.723  0.3390  0.3558 -0.6463
 6636SOL     OW21348   3.123   1.706  11.290  0.1981  0.3104 -0.0885
 6636SOL    HW121349   3.187   1.683  11.358 -0.3091  2.0265  1.0415
 6636SOL    HW221350   3.078   1.624  11.271  1.6711 -0.6037  0.2183
 6637SOL     OW21351   4.837   4.955   0.803  0.2579 -0.3124 -0.0410
 6637SOL    HW121352   4.754   4.970   0.758 -0.2695  0.4861  1.1373
 6637SOL    HW221353   4.899   5.013   0.761 -0.1030  0.0410 -0.0894
 6638SOL     OW21354   0.412   5.332   3.986 -0.1506 -0.5242  0.0740
 6638SOL    HW121355   0.461   5.389   4.045  0.6765 -0.5460 -0.5663
 6638SOL    HW221356   0.348   5.390   3.945 -0.9731 -0.5827  1.2295
 6639SOL     OW21357   3.260   1.799  10.061 -0.3832 -0.3431  0.8960
 6639SOL    HW121358   3.275   1.784   9.968 -1.3881 -1.7988  0.9122
 6639SOL    HW221359   3.256   1.894  10.071 -1.2791 -0.1804 -0.7356
 6640SOL     OW21360   2.528   7.513  11.115  0.4069 -0.0981 -0.2629
 6640SOL    HW121361   2.579   7.445  11.071 -0.8892 -2.8998  2.1953
 6640SOL    HW221362   2.534   7.491  11.208 -3.5812  0.5184  0.3282
 6641SOL     OW21363   6.122   0.856   9.608  0.1718  0.0053 -0.0723
 6641SOL    HW121364   6.064   0.806   9.551  0.0324  0.2510 -0.1518
 6641SOL    HW221365   6.192   0.795   9.632 -0.3391 -0.4145  0.3609
 6642SOL     OW21366   6.519   7.647   9.361  0.2139  0.1850 -0.4518
 6642SOL    HW121367   6.610   7.654   9.391 -0.4682  0.1352  1.8526
 6642SOL    HW221368   6.502   7.553   9.359  0.0533  0.2110 -0.3311
 6643SOL     OW21369   0.658   1.334   9.374  0.2616 -0.1752  0.3074
 6643SOL    HW121370   0.692   1.249   9.401 -1.8519 -0.8532  1.0278
 6643SOL    HW221371   0.629   1.322   9.284  1.2066  0.1977 -0.0595
 6644SOL     OW21372   7.682   4.728   3.726  0.0768 -0.4525  0.3110
 6644SOL    HW121373   7.630   4.706   3.803 -0.3852 -0.4501  0.0035
 6644SOL    HW221374   7.740   4.798   3.755 -1.2531  0.7314  0.2267
 6645SOL     OW21375   0.035   2.454   5.852 -0.3058 -0.3137 -0.7632
 6645SOL    HW121376   0.039   2.507   5.773  2.4225 -0.2225 -0.6758
 6645SOL    HW221377   0.006   2.514   5.921 -1.3271 -0.0512 -1.4042
 6646SOL     OW21378   7.380   0.364  11.211  0.5594  0.4008 -0.3895
 6646SOL    HW121379   7.332   0.364  11.128 -1.3725  1.7451  0.6397
 6646SOL    HW221380   7.361   0.278  11.250 -0.3792  0.5884 -0.3916
 6647SOL     OW21381   7.732   2.966   4.210 -0.2990  0.2456 -0.0550
 6647SOL    HW121382   7.662   2.903   4.194 -0.5577  0.7516 -0.9663
 6647SOL    HW221383   7.812   2.914   4.208 -0.4834 -0.0150 -1.0979
 6648SOL     OW21384   5.019   5.593   3.982 -0.1261 -0.5102  0.5172
 6648SOL    HW121385   5.052   5.504   3.969 -1.6906 -0.8895 -1.4390
 6648SOL    HW221386   5.095   5.649   3.970  0.6077 -1.5210  0.3411
 6649SOL     OW21387   6.972   1.128   6.775 -0.3111  0.1128 -0.0912
 6649SOL    HW121388   6.958   1.215   6.736 -1.1162  0.2143  0.4162
 6649SOL    HW221389   6.886   1.087   6.775  0.2064 -1.0615 -1.1535
 6650SOL     OW21390   6.291   7.764   6.188 -0.4813 -0.5232 -0.1890
 6650SOL    HW121391   6.216   7.769   6.248 -1.9719 -1.8142 -1.8412
 6650SOL    HW221392   6.335   7.682   6.212 -1.7164 -1.6041 -1.5214
 6651SOL     OW21393   0.010   3.106  10.728  0.8785  0.2239  0.1269
 6651SOL    HW121394   0.046   3.172  10.787 -0.8983  0.6672  0.7661
 6651SOL    HW221395  -0.056   3.060  10.780 -1.0598  0.9044 -1.5768
 6652SOL     OW21396   5.391   5.571  10.763  0.2616 -0.4109  0.2099
 6652SOL    HW121397   5.481   5.556  10.793  0.3687  0.3525  0.2897
 6652SOL    HW221398   5.379   5.507  10.692  0.5930 -1.0500  0.7226
 6653SOL     OW21399   0.910   5.412   1.291  0.7000  0.3510 -0.1072
 6653SOL    HW121400   0.876   5.500   1.278  0.2376  0.2192  0.1849
 6653SOL    HW221401   0.849   5.356   1.243 -1.3123 -0.1963  2.7805
 6654SOL     OW21402   1.920   2.616   6.883 -0.2815  0.1025  0.4961
 6654SOL    HW121403   1.909   2.539   6.827  1.7819  0.2236 -0.1797
 6654SOL    HW221404   1.974   2.676   6.831 -2.6081  2.4805  0.5984
 6655SOL     OW21405   7.386   3.196   9.046  0.0253  0.1408 -0.0641
 6655SOL    HW121406   7.306   3.225   9.089 -0.6456 -1.7849  0.0608
 6655SOL    HW221407   7.357   3.141   8.973  1.2217  0.3426 -0.7302
 6656SOL     OW21408   3.176   1.520   5.937  0.2298  0.5580 -0.6246
 6656SOL    HW121409   3.159   1.430   5.964 -2.1821  0.8807 -0.8269
 6656SOL    HW221410   3.094   1.567   5.956  1.1876  2.5650 -1.1381
 6657SOL     OW21411   2.082   1.996   3.024 -0.0285 -0.3042 -0.4018
 6657SOL    HW121412   2.151   2.062   3.026  0.0890 -0.4423  0.9534
 6657SOL    HW221413   2.122   1.919   3.063 -1.1060 -0.2006  0.9869
 6658SOL     OW21414   3.001   2.157  10.556  0.1081 -0.6712  0.0051
 6658SOL    HW121415   2.940   2.226  10.582 -0.2127 -1.7867  2.4670
 6658SOL    HW221416   3.065   2.201  10.500 -0.5760  1.4375  0.7974
 6659SOL     OW21417   1.129   6.178   3.700 -0.1297 -0.3460  0.0903
 6659SOL    HW121418   1.199   6.225   3.656  0.8591 -1.1261  0.7951
 6659SOL    HW221419   1.049   6.223   3.673  0.5137 -0.2875 -1.8094
 6660SOL     OW21420   2.135   0.897   3.243 -0.3281 -0.5134  0.0950
 6660SOL    HW121421   2.114   0.883   3.150  1.9949  2.0541 -0.9467
 6660SOL    HW221422   2.186   0.820   3.268  1.4337  0.0139 -1.6522
 6661SOL     OW21423   0.187   2.326   8.116 -0.2905  0.7810  0.3483
 6661SOL    HW121424   0.112   2.274   8.145  0.8620 -0.6334  0.8538
 6661SOL    HW221425   0.148   2.409   8.086 -1.8016  1.3811  3.5449
 6662SOL     OW21426   1.776   3.207  11.125  0.1359  0.1522 -0.3070
 6662SOL    HW121427   1.711   3.262  11.081  0.2615 -0.3877 -1.1889
 6662SOL    HW221428   1.849   3.266  11.144 -0.2104  0.5433 -0.1927
 6663SOL     OW21429   6.139   5.383   9.270  0.8138  0.2512 -0.0815
 6663SOL    HW121430   6.119   5.471   9.240  2.5067  0.7076 -0.0060
 6663SOL    HW221431   6.054   5.343   9.290  0.0543  2.0980  0.5594
 6664SOL     OW21432   2.227   1.141   3.747 -0.0487 -0.5295  0.4709
 6664SOL    HW121433   2.159   1.122   3.683  1.2580  0.9041 -1.4508
 6664SOL    HW221434   2.195   1.218   3.794  0.1834  0.0772 -0.3532
 6665SOL     OW21435   2.960   6.103   7.949  0.3706 -0.2453  0.1794
 6665SOL    HW121436   2.917   6.162   8.011  1.0567 -0.3644  0.7720
 6665SOL    HW221437   2.965   6.153   7.868 -0.6892 -0.1524  0.1561
 6666SOL     OW21438   7.189   7.329  12.200 -0.1731 -0.4569  0.0124
 6666SOL    HW121439   7.123   7.397  12.183  0.7651  0.6186  0.5616
 6666SOL    HW221440   7.263   7.353  12.144  0.2422 -0.9250  0.3524
 6667SOL     OW21441   1.531   0.781   5.418  0.0418  0.0563 -0.2200
 6667SOL    HW121442   1.547   0.687   5.419  0.8569  0.1526 -1.8760
 6667SOL    HW221443   1.617   0.820   5.436 -0.1929  0.4989 -0.0332
 6668SOL     OW21444   2.634   4.479   4.659 -0.5382 -0.2053  0.4345
 6668SOL    HW121445   2.653   4.548   4.723 -0.2644 -1.3382  1.6115
 6668SOL    HW221446   2.720   4.442   4.638 -0.7312 -0.5080  0.1716
 6669SOL     OW21447   2.637   5.702   7.960  0.4167 -0.0930 -0.3013
 6669SOL    HW121448   2.716   5.754   7.942 -0.6702  2.2746  1.1682
 6669SOL    HW221449   2.633   5.638   7.889  2.0708  1.6558 -2.0914
 6670SOL     OW21450   6.348   7.643   3.884 -0.0911  0.2503 -0.4808
 6670SOL    HW121451   6.255   7.661   3.873 -0.4284 -1.1588 -0.1166
 6670SOL    HW221452   6.352   7.551   3.911  1.5210 -0.3796 -2.5348
 6671SOL     OW21453   6.216   1.659  10.912 -0.2719 -0.3489  0.5495
 6671SOL    HW121454   6.298   1.676  10.958 -0.3284 -0.0743  0.5525
 6671SOL    HW221455   6.226   1.571  10.877  0.3863  0.0211 -0.2239
 6672SOL     OW21456   7.768   7.542   2.807  0.2805 -0.3162 -0.5412
 6672SOL    HW121457   7.780   7.462   2.757  2.2917 -0.0629 -0.5210
 6672SOL    HW221458   7.840   7.599   2.780 -1.3815  1.7127 -0.9496
 6673SOL     OW21459   0.886   2.647  11.998 -0.1087 -0.2564 -0.7825
 6673SOL    HW121460   0.860   2.687  12.081  4.1719 -0.0504  0.6871
 6673SOL    HW221461   0.901   2.555  12.020 -0.8759 -0.6554 -1.8724
 6674SOL     OW21462   3.345   4.549   6.817  0.2606  0.0389 -0.6450
 6674SOL    HW121463   3.313   4.479   6.760  0.4724 -0.2634 -0.3918
 6674SOL    HW221464   3.380   4.615   6.756  0.0025 -0.0465 -0.8849
 6675SOL     OW21465   0.967   3.238   5.235  0.1046 -0.9122  0.0328
 6675SOL    HW121466   0.986   3.237   5.142 -1.1581 -1.5106 -0.2455
 6675SOL    HW221467   0.891   3.296   5.244  1.2693  0.5500  0.9454
 6676SOL     OW21468   2.042   1.341   1.141  0.5838  1.0441  0.4225
 6676SOL    HW121469   2.011   1.372   1.056 -0.3554 -0.9438 -0.0083
 6676SOL    HW221470   2.137   1.331   1.130  0.4158  0.4107 -0.5395
 6677SOL     OW21471   7.605   3.235   9.207 -0.1384  0.1849  0.0133
 6677SOL    HW121472   7.581   3.233   9.300  0.0442  0.1094  0.0605
 6677SOL    HW221473   7.528   3.202   9.162 -0.9178  1.9583 -0.0228
 6678SOL     OW21474   7.565   1.565   9.827 -0.6641 -0.7648  0.1040
 6678SOL    HW121475   7.652   1.528   9.845 -1.8517 -2.5074  2.8750
 6678SOL    HW221476   7.512   1.538   9.901 -3.3454  1.1919 -0.9664
 6679SOL     OW21477   0.945   3.139   1.237  0.1357 -0.0695  0.1949
 6679SOL    HW121478   0.921   3.154   1.328  0.3304  2.2010 -0.0620
 6679SOL    HW221479   1.012   3.205   1.218  2.0122 -2.1358 -0.9070
 6680SOL     OW21480   5.796   4.732   9.799 -0.0765  0.5245  0.9135
 6680SOL    HW121481   5.709   4.756   9.767  0.4444 -0.1112 -1.1566
 6680SOL    HW221482   5.840   4.815   9.814  0.4521  1.0260 -2.5361
 6681SOL     OW21483   3.464   5.672   6.826  0.4048 -0.2445 -0.0232
 6681SOL    HW121484   3.376   5.704   6.805  0.6649  0.8453  0.4953
 6681SOL    HW221485   3.519   5.703   6.754  0.5685  0.0424  0.2247
 6682SOL     OW21486   1.895   5.022   4.859  0.0626 -0.3314 -0.5067
 6682SOL    HW121487   1.820   4.995   4.912 -1.3499 -0.0931 -2.2837
 6682SOL    HW221488   1.856   5.068   4.784  2.0108  0.0841 -1.3311
 6683SOL     OW21489   4.526   5.177   6.973 -0.5534  0.6219 -0.4638
 6683SOL    HW121490   4.484   5.202   7.055 -0.5145  2.3098 -0.9195
 6683SOL    HW221491   4.471   5.215   6.905  1.6085  2.9250 -1.0811
 6684SOL     OW21492   5.642   1.117   8.370  0.1929 -0.0970 -0.0380
 6684SOL    HW121493   5.669   1.051   8.306  0.5270  1.0256 -1.0867
 6684SOL    HW221494   5.548   1.127   8.356 -0.3385 -1.9467  1.6819
 6685SOL     OW21495   4.164   3.000   9.075 -0.2746 -0.8973 -0.0779
 6685SOL    HW121496   4.247   2.993   9.122  0.1070 -1.3391 -0.7940
 6685SOL    HW221497   4.188   3.034   8.989 -1.2262  2.0702  0.7259
 6686SOL     OW21498   4.296   1.009   8.415 -0.6716  0.5840 -0.3400
 6686SOL    HW121499   4.350   1.088   8.409 -0.3437  0.6339  2.0545
 6686SOL    HW221500   4.334   0.949   8.350  1.6510  0.9905  0.5246
 6687SOL     OW21501   3.527   0.113   3.581 -0.1311 -0.8527 -0.1026
 6687SOL    HW121502   3.433   0.109   3.565 -0.0573 -0.9050 -0.5271
 6687SOL    HW221503   3.556   0.193   3.536 -0.2680  0.2015  1.5658
 6688SOL     OW21504   2.494   0.666   3.607 -0.2569  0.0629  0.1382
 6688SOL    HW121505   2.491   0.570   3.617 -1.3336  0.0815  0.1182
 6688SOL    HW221506   2.583   0.684   3.576  0.1132 -0.8859  0.5841
 6689SOL     OW21507   7.765   6.951   0.849 -0.7216  0.0254  0.0323
 6689SOL    HW121508   7.682   6.995   0.866 -0.9294 -0.8293  1.3921
 6689SOL    HW221509   7.740   6.868   0.808 -0.5184 -0.0594  0.0797
 6690SOL     OW21510   5.427   0.320   5.426 -0.3466  0.1948  0.4358
 6690SOL    HW121511   5.372   0.309   5.349 -0.4481 -0.7409  0.6279
 6690SOL    HW221512   5.376   0.375   5.485  0.0310  1.5219 -0.4411
 6691SOL     OW21513   7.103   4.658   9.553  0.6984 -0.0187 -0.3886
 6691SOL    HW121514   7.191   4.645   9.588  1.5609 -0.3881 -2.5150
 6691SOL    HW221515   7.060   4.717   9.614  2.0570 -0.6643  1.2555
 6692SOL     OW21516   4.118   0.781   6.780  0.2586 -0.8086  0.0737
 6692SOL    HW121517   4.205   0.820   6.772  0.0102 -0.5984 -3.0242
 6692SOL    HW221518   4.060   0.855   6.799  0.4301 -0.4440 -0.7647
 6693SOL     OW21519   4.118   0.620   5.786  0.2197  0.1817  0.2196
 6693SOL    HW121520   4.116   0.587   5.696  0.3437 -1.9267  0.9401
 6693SOL    HW221521   4.194   0.577   5.825  0.5094  1.5261  1.2038
 6694SOL     OW21522   3.925   1.111   9.211  0.6966  0.2470 -0.0105
 6694SOL    HW121523   3.914   1.160   9.293  0.3572  2.3793 -1.2542
 6694SOL    HW221524   3.986   1.041   9.234  0.7622  0.8890  2.0217
 6695SOL     OW21525   3.285   6.709   4.211 -0.1319 -0.3911  0.2681
 6695SOL    HW121526   3.308   6.798   4.237 -1.9762  0.2129  0.0162
 6695SOL    HW221527   3.192   6.714   4.190 -0.1117 -2.2311 -0.4491
 6696SOL     OW21528   3.256   0.547   1.290  0.0320 -0.0819 -0.0978
 6696SOL    HW121529   3.259   0.554   1.195  0.9490  1.7633  0.0254
 6696SOL    HW221530   3.346   0.527   1.316 -0.5575 -2.4502  0.3047
 6697SOL     OW21531   5.714   0.854   5.977 -0.1996  0.1977  0.7234
 6697SOL    HW121532   5.641   0.870   5.917 -0.1936 -2.1362 -0.0116
 6697SOL    HW221533   5.792   0.858   5.922 -0.1588 -1.5003  0.6001
 6698SOL     OW21534   0.919   3.359   4.361 -0.1987 -0.2896  0.2113
 6698SOL    HW121535   0.994   3.310   4.328 -0.4529 -1.2591  1.0215
 6698SOL    HW221536   0.856   3.292   4.388 -1.5445  0.5089 -0.8387
 6699SOL     OW21537   4.282   1.931   2.300  0.6221  0.5308  0.5396
 6699SOL    HW121538   4.335   1.923   2.379 -2.3178  2.0569  2.8776
 6699SOL    HW221539   4.269   2.025   2.288  0.5903  0.3235 -1.5497
 6700SOL     OW21540   3.559   5.735   5.938 -0.4695 -0.0525  0.3043
 6700SOL    HW121541   3.608   5.665   5.981 -0.9809 -1.4170 -1.2552
 6700SOL    HW221542   3.610   5.814   5.957  0.9940 -1.0636  0.7824
 6701SOL     OW21543   3.745   6.263   4.521 -0.5908 -0.0287 -0.1730
 6701SOL    HW121544   3.743   6.275   4.616 -0.1001 -0.4836 -0.0961
 6701SOL    HW221545   3.838   6.271   4.498 -0.8993  1.8804 -0.8735
 6702SOL     OW21546   6.328   1.713   9.527 -0.3924  0.3007  0.2798
 6702SOL    HW121547   6.266   1.677   9.590  0.5475 -0.7877  0.6121
 6702SOL    HW221548   6.273   1.742   9.454 -1.2103 -1.8930 -0.0395
 6703SOL     OW21549   6.031   1.908  12.376  0.0495 -0.0658  0.4844
 6703SOL    HW121550   5.998   1.937  12.461 -0.6162  0.7547 -0.0328
 6703SOL    HW221551   5.957   1.861  12.336  0.8920 -1.9421  1.0185
 6704SOL     OW21552   6.466   1.717   6.509 -0.4592  0.0362  0.1584
 6704SOL    HW121553   6.445   1.624   6.504 -1.2125  0.0500  2.0574
 6704SOL    HW221554   6.381   1.761   6.504 -0.1334  0.6147 -0.4287
 6705SOL     OW21555   4.366   5.597   0.122 -0.3074  0.9613  0.2828
 6705SOL    HW121556   4.455   5.564   0.119 -1.0982 -1.3037 -0.5445
 6705SOL    HW221557   4.351   5.619   0.214  0.4676 -0.6170  0.8214
 6706SOL     OW21558   7.216   4.650   6.758  0.2061  0.1663  0.1636
 6706SOL    HW121559   7.126   4.668   6.785  0.0933 -0.5892  0.3294
 6706SOL    HW221560   7.228   4.700   6.678 -1.0014 -1.1818 -0.9173
 6707SOL     OW21561   1.774   7.789   9.368 -0.1057 -0.2710 -0.2861
 6707SOL    HW121562   1.747   7.754   9.453  1.6415  0.1431  0.4787
 6707SOL    HW221563   1.775   7.712   9.311 -0.0739 -0.7974  0.4026
 6708SOL     OW21564   6.387   3.017   9.052  0.0425 -0.3519 -0.1367
 6708SOL    HW121565   6.378   2.959   9.128 -0.6983 -0.0564  0.0065
 6708SOL    HW221566   6.303   3.011   9.007 -0.0470  0.5985 -0.1203
 6709SOL     OW21567   5.885   4.681   5.613  0.4175 -0.7577 -0.1720
 6709SOL    HW121568   5.831   4.743   5.663  2.5637  0.3642  0.8851
 6709SOL    HW221569   5.948   4.647   5.676  1.3351 -1.5737 -1.4873
 6710SOL     OW21570   6.186   2.933   8.004 -0.6997 -0.1665 -0.0147
 6710SOL    HW121571   6.182   2.980   8.088 -1.6357 -1.7705  0.8935
 6710SOL    HW221572   6.225   2.848   8.026 -0.0329 -0.2535 -1.4105
 6711SOL     OW21573   5.976   4.440  11.485  0.2774  0.7091  0.2175
 6711SOL    HW121574   5.970   4.513  11.423 -2.4470  0.2066 -0.2562
 6711SOL    HW221575   6.018   4.370  11.435 -0.6020  0.7688 -0.6437
 6712SOL     OW21576   5.822   7.532   7.288  0.3154  0.2051 -0.2953
 6712SOL    HW121577   5.911   7.556   7.314 -0.3781  1.2172  1.2628
 6712SOL    HW221578   5.787   7.611   7.248 -0.7005  0.6368  1.3794
 6713SOL     OW21579   1.233   6.893  12.170  0.2513 -0.1126 -0.2488
 6713SOL    HW121580   1.276   6.850  12.244 -2.0916 -1.7094  0.3152
 6713SOL    HW221581   1.255   6.839  12.094  2.4462  1.3833 -0.7743
 6714SOL     OW21582   0.005   0.135   6.202  0.1221 -0.8439  0.6604
 6714SOL    HW121583   0.034   0.157   6.114 -0.6068  0.1483  0.6402
 6714SOL    HW221584   0.050   0.054   6.223  0.8720 -0.7102 -0.3408
 6715SOL     OW21585   2.078   2.759   3.680 -0.4587 -0.3778 -0.0791
 6715SOL    HW121586   2.100   2.675   3.640 -0.1861  0.5916 -2.1016
 6715SOL    HW221587   2.008   2.739   3.741  1.1367 -2.4130  1.2147
 6716SOL     OW21588   6.347   7.910  11.989 -0.2758 -0.3488  0.0493
 6716SOL    HW121589   6.386   7.960  12.061  0.3803 -1.3836  0.4185
 6716SOL    HW221590   6.264   7.878  12.024 -0.6170  0.3038 -0.1316
 6717SOL     OW21591   5.218   1.882  11.237 -0.1626 -0.0356  0.4879
 6717SOL    HW121592   5.309   1.906  11.255 -0.9945  2.1438  2.3434
 6717SOL    HW221593   5.183   1.954  11.185 -1.4829  0.4961  2.0260
 6718SOL     OW21594   4.140   1.179   7.398  0.5130  0.3800 -0.5433
 6718SOL    HW121595   4.232   1.204   7.406  0.9030 -0.9699 -0.6249
 6718SOL    HW221596   4.103   1.245   7.339  1.5312  0.6800 -0.8696
 6719SOL     OW21597   4.793   4.302   0.256 -0.0708  0.6289  0.0419
 6719SOL    HW121598   4.825   4.349   0.179 -2.0893  1.6771 -0.1970
 6719SOL    HW221599   4.868   4.249   0.283  1.1103  1.2224 -1.8458
 6720SOL     OW21600   7.246   5.236   9.548 -0.1304  0.6435 -0.2289
 6720SOL    HW121601   7.335   5.211   9.526  0.0158  1.2695 -0.3655
 6720SOL    HW221602   7.254   5.319   9.595 -0.5025 -0.2611  1.5187
 6721SOL     OW21603   5.686   4.147   4.835  0.0893  0.2706  0.7620
 6721SOL    HW121604   5.775   4.122   4.857  0.7511  0.7426 -1.1511
 6721SOL    HW221605   5.668   4.223   4.890  0.4680 -0.4443  1.8975
 6722SOL     OW21606   3.057   4.754   9.532 -0.4217  0.5538 -0.1070
 6722SOL    HW121607   3.083   4.796   9.450 -0.0521 -0.8706 -0.7421
 6722SOL    HW221608   3.132   4.700   9.556 -1.6019 -1.3113 -0.4051
 6723SOL     OW21609   0.961   2.390   7.024 -0.3233 -0.1004  0.0703
 6723SOL    HW121610   0.952   2.321   7.089  1.6535 -0.3711  0.1142
 6723SOL    HW221611   0.986   2.467   7.074 -1.7404  0.4769 -0.0710
 6724SOL     OW21612   7.529   6.368   0.203 -0.1193  0.9990  0.8858
 6724SOL    HW121613   7.604   6.427   0.205  0.7735  0.1487 -2.1863
 6724SOL    HW221614   7.566   6.280   0.208 -0.8112  0.5520 -0.9385
 6725SOL     OW21615   5.714   6.140   7.708 -0.1965 -0.0148 -0.1206
 6725SOL    HW121616   5.728   6.154   7.615  0.4454 -0.9835 -0.1749
 6725SOL    HW221617   5.759   6.213   7.751 -0.7752  0.6179 -0.5666
 6726SOL     OW21618   0.775   4.628   0.530  0.0598  0.2511  0.4982
 6726SOL    HW121619   0.720   4.567   0.480  0.4706 -0.1592  0.5453
 6726SOL    HW221620   0.717   4.661   0.599 -0.4176  0.5825 -0.0543
 6727SOL     OW21621   7.161   3.392   9.006  0.2057  0.0993  0.3781
 6727SOL    HW121622   7.204   3.469   9.043  0.1966  0.2901  0.0017
 6727SOL    HW221623   7.217   3.367   8.933  0.8930 -1.0119  1.2498
 6728SOL     OW21624   1.749   5.273   5.448  0.0606  0.0165 -0.5784
 6728SOL    HW121625   1.682   5.209   5.422  0.0957  0.9142 -3.1877
 6728SOL    HW221626   1.721   5.304   5.534 -3.4483  0.9725 -1.8989
 6729SOL     OW21627   2.079   3.786   8.604 -0.3281 -0.2215 -0.1458
 6729SOL    HW121628   2.055   3.739   8.684 -0.4405  0.5880  0.2985
 6729SOL    HW221629   2.085   3.877   8.630  1.6253 -0.1749 -0.5988
 6730SOL     OW21630   2.076   2.750   6.671  1.0026  0.5127 -0.5005
 6730SOL    HW121631   2.136   2.819   6.642  2.5090 -1.8272 -3.6306
 6730SOL    HW221632   2.099   2.674   6.616 -2.0762 -1.8014  1.0992
 6731SOL     OW21633   2.107   1.346   9.647  0.5596  0.4317 -0.6851
 6731SOL    HW121634   2.028   1.328   9.597  0.0804  3.0580 -1.0158
 6731SOL    HW221635   2.077   1.397   9.722  1.7168 -0.3064  0.3260
 6732SOL     OW21636   0.437   2.651   1.587 -0.1488 -0.5490 -0.5028
 6732SOL    HW121637   0.454   2.704   1.510  0.3924  0.5180  0.3215
 6732SOL    HW221638   0.519   2.651   1.636 -0.6339 -0.7534  0.3390
 6733SOL     OW21639   2.920   6.194   3.251 -0.2588  0.3191  0.4242
 6733SOL    HW121640   2.899   6.205   3.158 -2.6984 -0.9247  0.7614
 6733SOL    HW221641   3.012   6.165   3.251 -0.3799 -0.2118 -1.6311
 6734SOL     OW21642   1.229   6.818   6.560  0.2474  0.2377 -0.1152
 6734SOL    HW121643   1.281   6.744   6.530 -0.1061 -0.5584  1.1981
 6734SOL    HW221644   1.204   6.796   6.650 -0.8374  1.4180 -0.0993
 6735SOL     OW21645   1.188   1.293   4.676 -0.1697 -0.0036  0.3346
 6735SOL    HW121646   1.202   1.361   4.742 -0.6536 -0.1118  0.5529
 6735SOL    HW221647   1.215   1.333   4.593 -0.8680  0.6047  0.3954
 6736SOL     OW21648   1.725   6.850   3.273  0.3661  0.2230 -0.1011
 6736SOL    HW121649   1.792   6.851   3.341 -0.2583 -1.9987  0.6226
 6736SOL    HW221650   1.758   6.909   3.205  2.6909 -0.2540  0.5461
 6737SOL     OW21651   7.426   6.501   2.395  0.3394 -0.0648 -0.7340
 6737SOL    HW121652   7.482   6.424   2.395  1.0263  0.4146 -1.8392
 6737SOL    HW221653   7.369   6.490   2.319 -1.4528 -0.7778  0.6198
 6738SOL     OW21654   0.557   7.610   0.639  0.7813  0.1456  0.2872
 6738SOL    HW121655   0.480   7.646   0.684  1.3389 -0.4922  1.8368
 6738SOL    HW221656   0.572   7.526   0.682  1.8516 -0.1241 -0.5712
 6739SOL     OW21657   2.801   3.570   8.819  0.1001 -0.1080  0.3705
 6739SOL    HW121658   2.788   3.513   8.743  2.5420 -0.6783  0.3043
 6739SOL    HW221659   2.852   3.643   8.785 -0.4586  0.6177  1.0849
 6740SOL     OW21660   5.474   3.923   4.169  0.5525  0.1481 -0.5209
 6740SOL    HW121661   5.526   3.842   4.174  0.4262  0.0846 -0.2073
 6740SOL    HW221662   5.406   3.903   4.104  1.5570  0.6043 -1.7578
 6741SOL     OW21663   4.777   7.309   6.772  0.1098  0.5335  0.2518
 6741SOL    HW121664   4.823   7.296   6.855  0.6696  1.8904  0.1700
 6741SOL    HW221665   4.779   7.223   6.730  0.1954 -0.0697  1.4448
 6742SOL     OW21666   0.244   3.691   6.002  0.1826  0.3354 -0.1294
 6742SOL    HW121667   0.324   3.681   6.053  2.0074  1.2407 -2.6387
 6742SOL    HW221668   0.235   3.607   5.956  0.1586  0.5337 -0.4860
 6743SOL     OW21669   5.168   2.811   2.313 -1.0061  0.2361 -0.4324
 6743SOL    HW121670   5.188   2.730   2.359  2.1117  1.6712  0.9998
 6743SOL    HW221671   5.084   2.840   2.349 -1.9827 -2.0527 -0.6944
 6744SOL     OW21672   4.655   1.248   6.169  0.1951  0.1797 -0.4325
 6744SOL    HW121673   4.641   1.313   6.099  1.2015  1.8068  0.7982
 6744SOL    HW221674   4.575   1.196   6.170 -0.6909  1.4614 -1.4409
 6745SOL     OW21675   3.000   6.723   2.661  0.0565 -0.2606  0.3932
 6745SOL    HW121676   3.089   6.695   2.644  0.2392  0.4965  0.0452
 6745SOL    HW221677   2.994   6.810   2.619 -0.7737 -0.2207  0.5802
 6746SOL     OW21678   1.400   0.691  11.147  0.3598  0.2677 -0.6044
 6746SOL    HW121679   1.376   0.775  11.186  0.3039 -0.0302  0.0130
 6746SOL    HW221680   1.457   0.650  11.211 -3.4744 -2.3487  1.5613
 6747SOL     OW21681   2.334   4.347   7.544  0.6832  0.3148  0.1029
 6747SOL    HW121682   2.297   4.433   7.561  0.0072 -0.1105  0.8654
 6747SOL    HW221683   2.273   4.306   7.483  0.6693  0.1523  0.2237
 6748SOL     OW21684   2.234   5.125   8.397 -0.3434 -0.6739  0.2827
 6748SOL    HW121685   2.173   5.120   8.324 -0.1077 -1.0297  0.1038
 6748SOL    HW221686   2.300   5.058   8.377  0.3493  0.0020  0.2402
 6749SOL     OW21687   1.201   3.595   7.461  0.5321  0.5277 -0.3268
 6749SOL    HW121688   1.246   3.598   7.545 -0.6332 -0.4055  0.3419
 6749SOL    HW221689   1.218   3.507   7.428  1.6538  1.1334 -1.4784
 6750SOL     OW21690   7.281   4.480   9.130 -0.1541 -0.0994  0.3158
 6750SOL    HW121691   7.230   4.443   9.202  2.1766 -0.2306  2.0223
 6750SOL    HW221692   7.218   4.530   9.078 -1.7850  0.7960  2.9783
 6751SOL     OW21693   0.091   5.610  11.436 -0.7354 -0.3102  0.1648
 6751SOL    HW121694   0.091   5.515  11.422 -0.5388  0.0598 -3.1803
 6751SOL    HW221695   0.157   5.623  11.504 -1.7256 -2.6202  1.7116
 6752SOL     OW21696   1.501   6.764  10.355 -0.3834 -0.1880  0.4051
 6752SOL    HW121697   1.453   6.682  10.345  0.6002 -0.5656 -1.7768
 6752SOL    HW221698   1.455   6.825  10.296 -0.0035  0.3046  0.6148
 6753SOL     OW21699   7.614   4.883   6.228  0.0641  0.4191  0.1669
 6753SOL    HW121700   7.697   4.851   6.264 -0.3961 -0.2005  0.6881
 6753SOL    HW221701   7.639   4.960   6.177  1.0380 -0.0716 -0.1327
 6754SOL     OW21702   5.903   2.598   6.001 -0.0546  0.5396 -0.1964
 6754SOL    HW121703   5.909   2.503   6.014 -0.0861  0.6093  0.3613
 6754SOL    HW221704   5.986   2.632   6.035  0.4855  0.6086 -1.5290
 6755SOL     OW21705   7.623   3.611   0.356  0.4789  0.2994 -0.0597
 6755SOL    HW121706   7.578   3.635   0.437  1.2592  0.9723  0.1780
 6755SOL    HW221707   7.555   3.568   0.304  0.0345 -0.4184  1.0592
 6756SOL     OW21708   3.904   4.589  10.172 -0.2675  0.0277 -0.1966
 6756SOL    HW121709   3.905   4.503  10.130  0.3708  0.9234 -2.1410
 6756SOL    HW221710   3.995   4.604  10.197 -0.2431  0.4347 -0.5247
 6757SOL     OW21711   3.683   7.727   0.152  0.3517 -0.3375  0.1982
 6757SOL    HW121712   3.626   7.727   0.229  0.6224 -0.0641  0.3974
 6757SOL    HW221713   3.660   7.808   0.106  1.2673  0.2743  0.7891
 6758SOL     OW21714   3.878   3.664  10.609  0.4862  0.1132  0.0641
 6758SOL    HW121715   3.799   3.628  10.568  0.6010 -0.3599  0.2635
 6758SOL    HW221716   3.862   3.656  10.703  0.0587  1.5469  0.1360
 6759SOL     OW21717   0.236   6.746   0.551 -0.1766  0.4053  0.4142
 6759SOL    HW121718   0.224   6.662   0.595  0.7025  0.5792  0.9952
 6759SOL    HW221719   0.326   6.743   0.517 -0.4152  0.7848 -0.2789
 6760SOL     OW21720   5.530   2.010   5.905 -0.0576 -0.1880 -0.2871
 6760SOL    HW121721   5.498   2.022   5.994 -1.2898 -1.3100 -0.5571
 6760SOL    HW221722   5.454   2.024   5.849  0.6818  0.4147 -1.1770
 6761SOL     OW21723   5.603   6.637   2.480 -0.2875 -0.0575  0.0900
 6761SOL    HW121724   5.684   6.620   2.432  0.0463  0.5136  0.4288
 6761SOL    HW221725   5.618   6.723   2.522 -0.7325 -0.3423  0.8573
 6762SOL     OW21726   1.393   1.853   5.618  0.2292  0.1172  0.1055
 6762SOL    HW121727   1.344   1.774   5.596 -0.8932  0.4924  1.1248
 6762SOL    HW221728   1.424   1.838   5.707  2.6014 -0.3779 -0.7205
 6763SOL     OW21729   2.804   7.407   2.587  0.0367  0.2362  0.2025
 6763SOL    HW121730   2.758   7.466   2.527  0.1285  0.2576  0.1523
 6763SOL    HW221731   2.894   7.440   2.587 -0.1388  0.7540  0.9965
 6764SOL     OW21732   3.151   4.049   0.843 -0.0675  0.1396  0.1845
 6764SOL    HW121733   3.227   3.999   0.815 -0.4609 -0.8830  0.8866
 6764SOL    HW221734   3.076   3.995   0.819 -0.5604  0.8756  0.0093
 6765SOL     OW21735   6.164   7.482   3.612 -0.8035  0.2430 -0.5701
 6765SOL    HW121736   6.207   7.567   3.615 -2.6306  1.1826  2.0176
 6765SOL    HW221737   6.232   7.422   3.579  1.3644  2.2081  0.0707
 6766SOL     OW21738   7.282   0.079   2.788 -0.6937  0.3456  0.0983
 6766SOL    HW121739   7.258   0.118   2.872 -0.1838 -0.4241  0.6050
 6766SOL    HW221740   7.366   0.037   2.804  0.2042  1.5466 -1.2142
 6767SOL     OW21741   2.642   6.425   2.867  0.3480 -0.7610  0.7409
 6767SOL    HW121742   2.694   6.476   2.929 -0.2649 -1.5436  1.9457
 6767SOL    HW221743   2.566   6.481   2.848 -0.9192 -1.5759  2.9554
 6768SOL     OW21744   6.349   5.859   2.881  0.1150  0.5574  0.0878
 6768SOL    HW121745   6.261   5.875   2.914  0.0377  1.4361 -0.5363
 6768SOL    HW221746   6.395   5.818   2.955 -0.9074 -0.2677  0.3001
 6769SOL     OW21747   7.385   2.565  10.383  0.5504  0.2246 -0.4626
 6769SOL    HW121748   7.381   2.474  10.353  1.4885 -0.6946  1.8828
 6769SOL    HW221749   7.314   2.572  10.446  1.0256  0.8263  0.0231
 6770SOL     OW21750   4.865   7.339  11.646  0.0687 -0.0552  0.0938
 6770SOL    HW121751   4.857   7.294  11.562 -4.4127 -0.4849  0.5409
 6770SOL    HW221752   4.907   7.275  11.703 -1.8749 -1.9602 -0.4851
 6771SOL     OW21753   4.717   5.429  11.353 -0.0079  0.1004 -0.1509
 6771SOL    HW121754   4.660   5.481  11.297 -1.5680  0.1171  1.4014
 6771SOL    HW221755   4.690   5.338  11.338  1.2824 -0.1502 -1.2520
 6772SOL     OW21756   4.009   7.098   0.806 -0.1940 -0.1554 -0.6456
 6772SOL    HW121757   3.997   7.010   0.841  2.3691 -1.5126 -2.7669
 6772SOL    HW221758   4.011   7.155   0.883  0.0270 -2.2143  0.9669
 6773SOL     OW21759   4.098   4.489   8.919 -0.2551  0.6541 -0.8225
 6773SOL    HW121760   4.152   4.559   8.956 -0.3349 -0.0093  0.5875
 6773SOL    HW221761   4.019   4.534   8.889 -0.3473  1.1642  0.1505
 6774SOL     OW21762   5.940   5.514   0.509 -0.4896  0.3788  0.0548
 6774SOL    HW121763   5.904   5.599   0.488  1.0778  1.6045  1.9210
 6774SOL    HW221764   6.035   5.527   0.509 -0.2062 -1.3920  0.2630
 6775SOL     OW21765   7.253   3.278   0.550 -0.2114 -0.0638 -0.7786
 6775SOL    HW121766   7.163   3.248   0.535 -1.6803  3.0755  0.7246
 6775SOL    HW221767   7.287   3.217   0.616 -1.6389 -0.6851 -0.5702
 6776SOL     OW21768   2.228   2.920  11.350 -0.1686 -0.2141 -0.6607
 6776SOL    HW121769   2.261   2.842  11.304  0.2237 -0.3749 -0.1129
 6776SOL    HW221770   2.219   2.986  11.281 -1.3946 -0.9975 -1.3160
 6777SOL     OW21771   0.077   4.251   0.234 -0.3257 -0.3167 -0.6153
 6777SOL    HW121772   0.014   4.323   0.226  0.5443  0.6415  0.6530
 6777SOL    HW221773   0.026   4.178   0.269 -0.8361  0.3060 -0.0317
 6778SOL     OW21774   2.320   1.043  10.284  0.1194  0.2904 -0.6192
 6778SOL    HW121775   2.253   0.996  10.235  0.9448 -1.7092  0.1017
 6778SOL    HW221776   2.275   1.074  10.363 -0.3272  0.3500 -0.8959
 6779SOL     OW21777   1.720   3.272   1.260  0.1290  0.2256 -0.3461
 6779SOL    HW121778   1.732   3.225   1.343  0.5194  0.4324 -0.2840
 6779SOL    HW221779   1.809   3.280   1.224 -0.2268 -2.0401 -1.9918
 6780SOL     OW21780   3.958   4.107   3.609 -0.2656  0.3224  0.3519
 6780SOL    HW121781   4.027   4.048   3.640 -0.6289 -0.5877 -0.5016
 6780SOL    HW221782   3.988   4.137   3.523 -0.3639  0.9152  0.5189
 6781SOL     OW21783   2.327   4.834   1.489 -0.2728  0.2049  0.2486
 6781SOL    HW121784   2.353   4.851   1.579 -1.4210  0.8132  0.4836
 6781SOL    HW221785   2.245   4.883   1.478 -0.3657 -0.1980 -0.9941
 6782SOL     OW21786   5.414   3.290   8.841 -0.9678 -0.4087  0.5710
 6782SOL    HW121787   5.391   3.322   8.928 -2.0900 -0.2399  0.2249
 6782SOL    HW221788   5.330   3.269   8.799 -0.4734 -0.2089 -0.5724
 6783SOL     OW21789   5.082   5.290   3.069  0.0977 -0.8954  0.0959
 6783SOL    HW121790   5.048   5.277   3.157 -0.7918 -1.7993 -0.3608
 6783SOL    HW221791   5.176   5.302   3.081 -0.4590  4.5337  1.7053
 6784SOL     OW21792   1.439   4.090   9.951 -0.9153 -0.7468  0.6152
 6784SOL    HW121793   1.513   4.043   9.913  1.5715  3.8063 -0.9585
 6784SOL    HW221794   1.456   4.092  10.045  0.4215 -0.6481  0.3798
 6785SOL     OW21795   4.773   7.778   3.787 -0.2644 -0.0198 -0.4089
 6785SOL    HW121796   4.694   7.751   3.739  0.9347 -1.3241 -1.7491
 6785SOL    HW221797   4.794   7.864   3.751  0.0316 -0.5400 -1.5385
 6786SOL     OW21798   6.847   2.241   8.161  0.3046 -0.0599  0.3409
 6786SOL    HW121799   6.881   2.163   8.118  1.3959  1.6604 -2.1665
 6786SOL    HW221800   6.920   2.304   8.159 -0.6820  1.2289  1.8036
 6787SOL     OW21801   2.781   4.893   5.391  0.3852  0.2599  0.5119
 6787SOL    HW121802   2.850   4.923   5.450  0.3046 -0.4987  1.0046
 6787SOL    HW221803   2.704   4.945   5.415  0.7729  1.1313 -0.0623
 6788SOL     OW21804   2.226   4.444   1.966 -0.0548  0.3903 -0.3589
 6788SOL    HW121805   2.210   4.473   1.876  1.0648 -0.4233 -0.8453
 6788SOL    HW221806   2.193   4.354   1.968  4.1592 -1.3874 -1.4259
 6789SOL     OW21807   3.905   3.101  11.750 -0.2524 -0.2732  0.3826
 6789SOL    HW121808   3.841   3.040  11.711  0.8209 -1.0686 -0.1828
 6789SOL    HW221809   3.985   3.049  11.759  0.6844  1.0395 -0.0807
 6790SOL     OW21810   5.264   4.090   8.912  0.0933 -0.5496 -0.0132
 6790SOL    HW121811   5.303   4.018   8.863 -0.8247 -0.5780 -0.7167
 6790SOL    HW221812   5.213   4.047   8.981 -1.5049 -0.6607 -1.2053
 6791SOL     OW21813   0.163   7.578   8.028 -0.1058  0.3105 -0.5886
 6791SOL    HW121814   0.194   7.647   8.087  0.0454  0.3164 -0.6747
 6791SOL    HW221815   0.075   7.558   8.059  0.8357 -1.3625  1.1330
 6792SOL     OW21816   2.662   6.137   6.873  0.6675  0.3193 -0.1014
 6792SOL    HW121817   2.569   6.114   6.876  0.8384 -0.4112 -0.4279
 6792SOL    HW221818   2.693   6.105   6.789  1.2334  0.5257  0.0193
 6793SOL     OW21819   4.578   1.490   7.355 -0.9903 -0.5180 -0.2627
 6793SOL    HW121820   4.626   1.441   7.421  2.2391  1.4733 -0.8938
 6793SOL    HW221821   4.574   1.432   7.279 -1.2582 -1.3775  0.3910
 6794SOL     OW21822   6.324   6.593   0.532  0.1489 -0.0535  0.8024
 6794SOL    HW121823   6.360   6.673   0.568  0.6507  0.4577 -0.7700
 6794SOL    HW221824   6.373   6.578   0.451 -0.6040 -1.4055  0.5576
 6795SOL     OW21825   1.333   5.111   1.046  0.7836 -0.6022 -0.5323
 6795SOL    HW121826   1.276   5.064   1.107  0.9899 -0.0850  0.0723
 6795SOL    HW221827   1.292   5.099   0.960 -0.7472  0.5036 -0.0033
 6796SOL     OW21828   6.077   7.667   2.917 -0.1180  0.5782 -0.5307
 6796SOL    HW121829   6.101   7.634   3.004 -0.2814  0.0173 -0.6936
 6796SOL    HW221830   6.095   7.761   2.921  2.3855  0.1742 -0.7316
 6797SOL     OW21831   2.804   1.859  11.816 -0.0700  0.4389  0.0398
 6797SOL    HW121832   2.775   1.801  11.745 -0.8541  1.3175 -0.3722
 6797SOL    HW221833   2.730   1.918  11.830 -0.1625 -0.0937  2.0098
 6798SOL     OW21834   7.105   7.926   0.170 -0.0801  0.1624  0.2730
 6798SOL    HW121835   7.017   7.958   0.191 -0.4568 -0.8900  0.3600
 6798SOL    HW221836   7.160   7.961   0.241  0.1282  3.0563 -1.1825
 6799SOL     OW21837   0.521   2.679   6.693 -0.1975 -0.0600 -0.6255
 6799SOL    HW121838   0.529   2.745   6.624 -0.6586 -0.0902 -0.7160
 6799SOL    HW221839   0.429   2.685   6.720 -0.2527 -0.6961 -0.6633
 6800SOL     OW21840   2.992   3.059   8.958  0.6197 -0.2294 -0.0218
 6800SOL    HW121841   2.998   2.979   8.906  0.0592 -0.4892  0.3081
 6800SOL    HW221842   2.921   3.109   8.916  0.2704 -0.3715  0.3880
 6801SOL     OW21843   4.702   4.748   2.433  0.1153  0.1530  0.3930
 6801SOL    HW121844   4.652   4.687   2.380 -3.0272  0.7004  2.4396
 6801SOL    HW221845   4.710   4.827   2.379 -1.9619  0.2893  0.2060
 6802SOL     OW21846   4.688   3.745  11.797  0.5961  0.5865 -0.2883
 6802SOL    HW121847   4.647   3.660  11.806  0.4901  0.7863  1.5900
 6802SOL    HW221848   4.768   3.728  11.748  0.4740 -0.5621 -0.1178
 6803SOL     OW21849   0.317   2.799   0.835  0.3231  0.7211 -0.0732
 6803SOL    HW121850   0.268   2.743   0.895  1.6500 -0.3355  0.0502
 6803SOL    HW221851   0.317   2.885   0.878  1.1260  0.0286  1.4130
 6804SOL     OW21852   1.981   4.184   1.206 -0.0698  0.0216 -0.1975
 6804SOL    HW121853   1.957   4.231   1.126  2.0919 -0.8032 -1.4133
 6804SOL    HW221854   2.063   4.225   1.234  0.2226 -0.9874  0.4933
 6805SOL     OW21855   1.106   1.003   0.776  0.1139 -0.5313 -0.3184
 6805SOL    HW121856   1.021   1.033   0.810  0.8928 -0.8373  2.1452
 6805SOL    HW221857   1.136   1.074   0.720 -1.0616  0.3076  0.0758
 6806SOL     OW21858   1.431   0.646   6.032 -0.1647 -0.1094 -0.4377
 6806SOL    HW121859   1.496   0.682   6.092 -1.3411 -0.9906  1.4669
 6806SOL    HW221860   1.479   0.627   5.952  1.5647  0.7280  0.3586
 6807SOL     OW21861   0.479   0.111  10.882  0.4212 -0.1249 -0.0835
 6807SOL    HW121862   0.529   0.041  10.925 -0.6332 -1.2641 -0.6648
 6807SOL    HW221863   0.454   0.169  10.954 -0.2219 -1.3130  0.6857
 6808SOL     OW21864   0.936   3.486  10.467 -0.3303  0.7105  0.1331
 6808SOL    HW121865   1.013   3.543  10.462 -0.4918  0.9816  0.6578
 6808SOL    HW221866   0.869   3.540  10.507 -0.0464 -0.3051  2.0802
 6809SOL     OW21867   7.369   4.562   0.831  0.0362  0.3289 -0.5794
 6809SOL    HW121868   7.378   4.579   0.925  1.1829 -0.9763 -0.4285
 6809SOL    HW221869   7.327   4.641   0.797 -2.6659 -0.1047  1.3807
 6810SOL     OW21870   4.742   6.618   5.463  0.5060  0.1923  1.1689
 6810SOL    HW121871   4.790   6.654   5.388  0.9302 -0.3059  1.1934
 6810SOL    HW221872   4.696   6.693   5.501 -1.1034  0.1908 -0.5933
 6811SOL     OW21873   6.489   7.752   5.001 -0.3268  0.0321 -0.4221
 6811SOL    HW121874   6.426   7.805   4.952 -1.1336 -0.3213  0.2051
 6811SOL    HW221875   6.549   7.816   5.040 -1.0346  0.4647 -0.0293
 6812SOL     OW21876   6.279   2.815   9.249  0.0203  0.2365  0.2342
 6812SOL    HW121877   6.290   2.872   9.325 -1.3799  0.1706  0.5073
 6812SOL    HW221878   6.205   2.758   9.271  1.3213 -1.6655 -0.0643
 6813SOL     OW21879   4.191   0.478   8.480 -0.0746  0.3082 -0.5574
 6813SOL    HW121880   4.133   0.461   8.555  0.5419  0.2895 -0.0814
 6813SOL    HW221881   4.186   0.572   8.467 -0.1480  0.3175 -0.4642
 6814SOL     OW21882   0.769   4.467   1.443  0.3531  0.3486  0.0095
 6814SOL    HW121883   0.677   4.494   1.436  0.4834  0.7804 -0.0650
 6814SOL    HW221884   0.769   4.401   1.512 -0.4099 -1.4925 -1.6430
 6815SOL     OW21885   3.232   1.117  12.367 -0.9228 -0.1458 -0.6047
 6815SOL    HW121886   3.219   1.059  12.442  0.5747 -1.2276 -1.1388
 6815SOL    HW221887   3.256   1.201  12.406 -1.2855 -0.3849  0.1554
 6816SOL     OW21888   6.332   2.692   1.773 -0.3668  0.4056  0.5369
 6816SOL    HW121889   6.362   2.770   1.726 -1.4731 -0.3950 -1.6626
 6816SOL    HW221890   6.252   2.720   1.817 -0.0943  0.8190  0.7698
 6817SOL     OW21891   6.158   4.558   5.016 -0.0358 -0.1816  0.3618
 6817SOL    HW121892   6.190   4.647   5.028  0.4586 -0.3679  0.4346
 6817SOL    HW221893   6.237   4.505   5.003 -0.2710 -0.7393  1.1304
 6818SOL     OW21894   4.946   1.535   4.464  0.0139  0.6571  0.3485
 6818SOL    HW121895   4.908   1.600   4.524 -0.3725  0.5840  0.1865
 6818SOL    HW221896   4.870   1.488   4.429  0.2765  0.2988  0.2571
 6819SOL     OW21897   2.472   2.401   8.217  0.2116  0.4204  0.1227
 6819SOL    HW121898   2.487   2.306   8.209  0.1370  0.2946  1.3681
 6819SOL    HW221899   2.542   2.432   8.274 -1.5283  0.5593  2.3295
 6820SOL     OW21900   4.054   6.978   6.408 -0.4104  0.6474  0.4449
 6820SOL    HW121901   4.130   7.026   6.442 -0.5209  0.9573  0.2528
 6820SOL    HW221902   4.090   6.894   6.379 -0.0081  1.0969 -0.3801
 6821SOL     OW21903   5.393   4.568   0.879 -0.4964 -0.6196 -0.0770
 6821SOL    HW121904   5.397   4.647   0.825  0.4693 -0.0225  0.8286
 6821SOL    HW221905   5.346   4.504   0.825  0.0834  0.0819 -1.4547
 6822SOL     OW21906   5.448   1.554  10.619  0.4311 -0.3214 -0.2062
 6822SOL    HW121907   5.432   1.642  10.585  2.4670  0.6021  1.0342
 6822SOL    HW221908   5.475   1.504  10.542 -0.7566  0.0864 -0.9277
 6823SOL     OW21909   6.306   4.135   8.652 -0.1054 -0.6422 -0.7812
 6823SOL    HW121910   6.252   4.168   8.579 -1.6463 -0.5995  0.3221
 6823SOL    HW221911   6.245   4.131   8.726  1.3569 -0.9562  0.4387
 6824SOL     OW21912   1.488   2.735   8.882  0.3140 -0.2745  0.1042
 6824SOL    HW121913   1.468   2.678   8.808 -0.6253 -0.7842  0.7306
 6824SOL    HW221914   1.433   2.813   8.868  1.1337  0.2244 -0.4233
 6825SOL     OW21915   6.910   3.642   7.253 -0.0163  0.1547  0.1982
 6825SOL    HW121916   6.881   3.688   7.333  0.2786  1.2048 -0.2811
 6825SOL    HW221917   6.973   3.702   7.213 -0.2299 -0.3220 -0.8747
 6826SOL     OW21918   0.453   5.892  11.826  0.1379 -0.0110  0.5694
 6826SOL    HW121919   0.512   5.915  11.755  1.0082 -0.9114  0.9752
 6826SOL    HW221920   0.396   5.824  11.789  0.3857 -0.2560  0.6337
 6827SOL     OW21921   1.502   1.574   5.401 -0.2373  0.6025 -0.4457
 6827SOL    HW121922   1.483   1.480   5.397  0.4375  0.4312  0.0922
 6827SOL    HW221923   1.427   1.612   5.446 -0.2009  0.2187 -0.0510
 6828SOL     OW21924   1.176   3.881   2.970  0.1032 -0.0340 -0.1406
 6828SOL    HW121925   1.182   3.974   2.947 -0.1484 -0.0446 -0.2568
 6828SOL    HW221926   1.266   3.850   2.966  0.2418  0.2993  0.2997
 6829SOL     OW21927   7.345   3.686  12.059 -0.0562  0.1229 -0.2163
 6829SOL    HW121928   7.412   3.618  12.053 -1.2110 -0.9559 -3.1282
 6829SOL    HW221929   7.298   3.666  12.139  0.4038 -1.8175 -0.3595
 6830SOL     OW21930   6.305   4.308  10.912  0.0934 -0.1859 -0.2453
 6830SOL    HW121931   6.330   4.219  10.937 -1.4783 -0.2281  1.4069
 6830SOL    HW221932   6.229   4.297  10.855  0.2935  0.0807 -0.5689
 6831SOL     OW21933   6.004   0.134   3.266  0.0756 -0.4687  0.0724
 6831SOL    HW121934   5.961   0.135   3.352 -1.2109  0.7449 -0.5478
 6831SOL    HW221935   5.932   0.137   3.203  1.0190 -0.8437 -1.0513
 6832SOL     OW21936   5.672   4.363  10.926  0.7027  0.4403  0.5845
 6832SOL    HW121937   5.595   4.306  10.915  0.3120  1.2848 -1.4784
 6832SOL    HW221938   5.639   4.451  10.909  2.0411  0.8586  0.0403
 6833SOL     OW21939   5.020   4.698   6.870  0.6227 -0.0394  0.3909
 6833SOL    HW121940   4.984   4.624   6.821  0.1547  0.2226  0.3321
 6833SOL    HW221941   5.023   4.769   6.805  0.3051  0.2190  0.6578
 6834SOL     OW21942   3.787   2.352   8.666  0.5242 -0.0705  0.4413
 6834SOL    HW121943   3.866   2.335   8.716  1.5958  1.9618 -0.4353
 6834SOL    HW221944   3.742   2.420   8.715  1.0546  1.1805 -0.7324
 6835SOL     OW21945   0.327   1.591   1.691  0.2537  0.3752 -0.4310
 6835SOL    HW121946   0.249   1.571   1.743  0.8433 -0.5222  0.1290
 6835SOL    HW221947   0.366   1.506   1.673  1.6573  0.8637  0.1548
 6836SOL     OW21948   4.887   1.732   5.475 -0.1101  0.0916 -0.4197
 6836SOL    HW121949   4.796   1.760   5.471 -0.0559  0.5894  1.0672
 6836SOL    HW221950   4.888   1.664   5.542  1.0674  2.3648  2.0816
 6837SOL     OW21951   5.412   4.338   4.718 -0.0482  0.3799  0.1141
 6837SOL    HW121952   5.433   4.245   4.730 -0.8580  0.3135  1.1159
 6837SOL    HW221953   5.370   4.364   4.799 -1.4139  1.1837 -0.8108
 6838SOL     OW21954   1.757   3.746   5.684  0.5169  0.0690  0.3534
 6838SOL    HW121955   1.796   3.819   5.733  0.4917 -0.1207  0.6641
 6838SOL    HW221956   1.673   3.730   5.729  0.8166 -0.5756  0.7044
 6839SOL     OW21957   7.842   7.919   4.442 -0.2399  0.6165 -0.0840
 6839SOL    HW121958   7.766   7.972   4.419  0.9183  1.6042 -1.8765
 6839SOL    HW221959   7.836   7.842   4.386 -0.3863  0.2446  0.4344
 6840SOL     OW21960   1.756   2.690   4.942 -0.3188  0.0312 -0.0331
 6840SOL    HW121961   1.848   2.715   4.939 -0.5909  1.2362  0.7216
 6840SOL    HW221962   1.728   2.690   4.850  0.9693 -2.6602 -0.5029
 6841SOL     OW21963   4.838   3.668  12.088 -0.4876 -0.3233 -0.0340
 6841SOL    HW121964   4.745   3.645  12.091 -0.2729 -1.1267  1.4510
 6841SOL    HW221965   4.883   3.585  12.072  0.0209 -0.0586 -0.0175
 6842SOL     OW21966   0.084   0.899   6.346  0.1973  0.8798 -0.5315
 6842SOL    HW121967   0.157   0.864   6.396 -0.9869 -0.1910  0.5250
 6842SOL    HW221968   0.006   0.874   6.397 -1.0477  0.0309 -2.7367
 6843SOL     OW21969   6.424   3.941   9.564 -0.1751 -0.3707  0.1981
 6843SOL    HW121970   6.391   3.932   9.475 -1.6329 -3.2235  0.9153
 6843SOL    HW221971   6.369   4.007   9.604  0.8488  1.3541 -1.0975
 6844SOL     OW21972   1.129   7.148   8.995  0.0182  0.0682  0.0331
 6844SOL    HW121973   1.087   7.152   9.081  0.9185 -0.8916  0.5378
 6844SOL    HW221974   1.216   7.184   9.009  0.6209 -1.2560 -0.1677
 6845SOL     OW21975   4.405   4.594   8.888  0.5712  0.4987 -0.3196
 6845SOL    HW121976   4.422   4.540   8.965 -1.0436  0.3556 -0.0163
 6845SOL    HW221977   4.377   4.532   8.821  1.5596  0.6686 -0.9036
 6846SOL     OW21978   4.047   5.886   0.445 -0.3163 -0.6294 -0.4035
 6846SOL    HW121979   4.125   5.922   0.487 -1.2817  0.2085  0.7594
 6846SOL    HW221980   4.013   5.958   0.392 -1.8156  0.0105  1.3087
 6847SOL     OW21981   2.056   3.567   3.485  0.7481  0.5183 -0.5744
 6847SOL    HW121982   1.980   3.570   3.543 -0.2762 -3.1694 -1.4501
 6847SOL    HW221983   2.026   3.608   3.404  0.7930  1.8988  0.0835
 6848SOL     OW21984   3.826   1.976  11.169  0.1920  0.7064 -0.2788
 6848SOL    HW121985   3.872   2.051  11.131  2.3393 -0.9087 -1.0218
 6848SOL    HW221986   3.894   1.911  11.185 -1.0568  0.0225  3.3688
 6849SOL     OW21987   5.521   2.398   1.514 -0.5390 -0.4506 -0.4009
 6849SOL    HW121988   5.468   2.463   1.468  2.0656  0.3693 -2.4677
 6849SOL    HW221989   5.528   2.325   1.453 -0.7623 -1.3197  0.5880
 6850SOL     OW21990   5.718   4.771   7.690 -0.3231 -0.5821 -0.1017
 6850SOL    HW121991   5.789   4.818   7.646 -1.1942  1.1318  0.2559
 6850SOL    HW221992   5.727   4.681   7.658  1.3690 -0.2009 -0.8522
 6851SOL     OW21993   4.867   5.410   4.902 -0.0054 -0.2902 -0.2417
 6851SOL    HW121994   4.946   5.430   4.851 -0.8872 -2.4398 -2.6967
 6851SOL    HW221995   4.899   5.373   4.984  1.4927  1.5445  0.0462
 6852SOL     OW21996   4.022   6.320   4.533  0.1195  0.0124  0.1833
 6852SOL    HW121997   4.087   6.369   4.482  0.0140  1.4443  1.3634
 6852SOL    HW221998   4.073   6.251   4.576  1.0187  1.3697  1.4259
 6853SOL     OW21999   1.621   2.647   4.411 -0.0418 -0.0295  0.0578
 6853SOL    HW122000   1.532   2.675   4.388 -0.1722 -0.0553  0.5198
 6853SOL    HW222001   1.611   2.555   4.436  0.0742  0.0370  0.3491
 6854SOL     OW22002   0.134   3.570   9.672 -0.2483  0.2414  0.1877
 6854SOL    HW122003   0.051   3.617   9.666 -0.2664  0.7379  2.7814
 6854SOL    HW222004   0.119   3.505   9.741  1.4459  0.2775  0.6350
 6855SOL     OW22005   7.650   1.022   1.401 -0.4467  0.4495  0.3132
 6855SOL    HW122006   7.685   0.985   1.320  0.3252  2.0093 -0.0988
 6855SOL    HW222007   7.572   1.070   1.374 -1.3938 -0.7400  0.8329
 6856SOL     OW22008   1.532   3.880   5.133 -0.1404  0.1313 -0.1826
 6856SOL    HW122009   1.614   3.921   5.105 -1.0026  2.6123  0.6570
 6856SOL    HW222010   1.543   3.865   5.227 -0.0295 -1.1319 -0.3895
 6857SOL     OW22011   2.491   2.703  11.683  0.4966 -0.0883 -0.3081
 6857SOL    HW122012   2.461   2.667  11.600  0.8668 -0.7477 -0.1668
 6857SOL    HW222013   2.503   2.796  11.667  1.5816 -0.3804 -1.2908
 6858SOL     OW22014   5.578   4.736   1.181  0.4512 -0.4604 -0.0405
 6858SOL    HW122015   5.570   4.786   1.262  1.4232 -1.3805  0.6512
 6858SOL    HW222016   5.645   4.782   1.131 -0.2675  0.2030 -0.4041
 6859SOL     OW22017   5.572   4.157   5.319  0.1439  0.4151  0.6779
 6859SOL    HW122018   5.648   4.127   5.369 -0.0069 -2.0903 -0.4143
 6859SOL    HW222019   5.578   4.109   5.236 -0.6998  2.8824 -0.9214
 6860SOL     OW22020   6.630   0.017   1.068  0.0296 -0.0575  0.5117
 6860SOL    HW122021   6.623   0.014   1.163  0.7943 -1.5906  0.5461
 6860SOL    HW222022   6.656  -0.071   1.043  0.7350  0.5577 -1.0551
 6861SOL     OW22023   2.898   2.864   7.733 -0.1960 -0.7603 -0.4351
 6861SOL    HW122024   2.913   2.868   7.827 -3.7771  0.8836  0.2408
 6861SOL    HW222025   2.945   2.785   7.704  2.0298 -0.6305  2.4184
 6862SOL     OW22026   6.129   1.419   4.782 -0.6067  0.4361  0.4818
 6862SOL    HW122027   6.078   1.473   4.722  1.3831  2.5901  0.6179
 6862SOL    HW222028   6.086   1.430   4.866 -1.4658  0.0743  0.0978
 6863SOL     OW22029   2.958   2.335   5.108  0.5384 -0.0951 -0.6297
 6863SOL    HW122030   2.933   2.244   5.090  1.5920 -0.3133 -1.0486
 6863SOL    HW222031   3.025   2.354   5.043  1.4505  0.4746  0.4634
 6864SOL     OW22032   2.416   3.533   4.183 -0.2113 -0.1344 -0.1968
 6864SOL    HW122033   2.407   3.617   4.228  0.3022  0.2522 -0.7943
 6864SOL    HW222034   2.338   3.483   4.208 -2.2791  1.7494 -2.4401
 6865SOL     OW22035   2.612   7.210  10.280  0.0106 -0.1649 -0.6364
 6865SOL    HW122036   2.699   7.233  10.248 -0.8755  0.3828 -2.8364
 6865SOL    HW222037   2.566   7.174  10.204 -1.6019 -0.7393  0.5362
 6866SOL     OW22038   4.536   7.112   2.251 -0.1681  0.2599  0.0413
 6866SOL    HW122039   4.611   7.069   2.210 -0.5902 -1.4542  1.0098
 6866SOL    HW222040   4.459   7.072   2.211 -0.5855  0.9212  0.1565
 6867SOL     OW22041   1.441   6.729  10.876 -0.1133  0.4444  0.4861
 6867SOL    HW122042   1.363   6.768  10.836  0.6010  1.0932 -0.3154
 6867SOL    HW222043   1.511   6.745  10.813  0.1574 -2.6000 -0.1339
 6868SOL     OW22044   6.992   0.143   9.607 -0.2512  0.1600  0.5040
 6868SOL    HW122045   6.936   0.168   9.680 -0.9945  1.0650 -0.3500
 6868SOL    HW222046   7.068   0.201   9.615 -0.2210  0.0937  0.6983
 6869SOL     OW22047   6.527   2.668   2.262  0.8230  0.5950  0.0668
 6869SOL    HW122048   6.522   2.729   2.188  0.8053 -0.2089 -0.6135
 6869SOL    HW222049   6.528   2.582   2.221  0.3032  0.1162  1.0334
 6870SOL     OW22050   1.278   4.250   8.869  0.5285  0.3100 -0.0911
 6870SOL    HW122051   1.305   4.342   8.868 -0.5967  0.6788  0.9540
 6870SOL    HW222052   1.344   4.207   8.923  0.8447  0.5664 -0.2671
 6871SOL     OW22053   0.802   6.184   3.444 -0.2389 -0.3120 -0.5679
 6871SOL    HW122054   0.715   6.202   3.480  0.2245 -1.3578  1.1966
 6871SOL    HW222055   0.863   6.207   3.514  0.6337 -3.6536 -0.0156
 6872SOL     OW22056   2.537   0.377   2.840 -0.3751  0.0770 -0.3434
 6872SOL    HW122057   2.580   0.320   2.776 -0.2842 -0.8912  0.5552
 6872SOL    HW222058   2.607   0.434   2.871 -0.4123  0.5320 -1.0674
 6873SOL     OW22059   7.003   2.391   5.482  0.8072  0.5172  0.4963
 6873SOL    HW122060   7.053   2.309   5.489  0.0685  0.1012  1.1949
 6873SOL    HW222061   7.017   2.435   5.566 -0.2420  0.2254  0.8524
 6874SOL     OW22062   7.873   6.783   4.404 -0.4922 -0.0184 -0.6351
 6874SOL    HW122063   7.820   6.704   4.407 -0.2915 -0.1535 -0.7074
 6874SOL    HW222064   7.952   6.762   4.454  0.2164 -0.3398 -1.8585
 6875SOL     OW22065   5.112   5.789   0.326 -0.6223  0.6875  0.0359
 6875SOL    HW122066   5.177   5.734   0.372 -1.4264 -0.0369  0.3374
 6875SOL    HW222067   5.095   5.861   0.387 -0.0117  0.9485 -0.0981
 6876SOL     OW22068   4.558   5.412   2.435 -0.0072  0.1103 -0.5909
 6876SOL    HW122069   4.635   5.468   2.420  1.3414 -1.6505 -0.5799
 6876SOL    HW222070   4.560   5.349   2.363 -1.3453 -0.1045 -0.4658
 6877SOL     OW22071   6.184   3.930   5.068 -0.2298  0.0084 -0.1515
 6877SOL    HW122072   6.230   4.005   5.030  1.9715 -1.4999 -0.6765
 6877SOL    HW222073   6.225   3.854   5.027 -3.0141 -1.5337 -0.3719
 6878SOL     OW22074   3.656   5.054   6.458  0.2355  0.0491  0.3965
 6878SOL    HW122075   3.683   5.139   6.492 -1.8131  1.0468 -0.3379
 6878SOL    HW222076   3.620   5.072   6.372  0.3453 -1.6721 -0.0496
 6879SOL     OW22077   0.540   6.847   1.152  0.3546  0.5393 -0.3954
 6879SOL    HW122078   0.612   6.875   1.209  1.4994  0.9468 -1.9634
 6879SOL    HW222079   0.580   6.781   1.095 -0.5030  0.7898 -1.3048
 6880SOL     OW22080   7.089   1.809   9.957  0.6640  0.1496  0.1317
 6880SOL    HW122081   7.044   1.734   9.996  2.1587 -1.0567 -0.3788
 6880SOL    HW222082   7.098   1.872  10.029 -2.2386  0.7181  0.1499
 6881SOL     OW22083   5.344   7.539   7.732  0.0838  0.0349  0.2075
 6881SOL    HW122084   5.408   7.610   7.739  0.7336 -0.6867  2.1664
 6881SOL    HW222085   5.293   7.561   7.654  2.0343  1.1757 -0.8267
 6882SOL     OW22086   5.181   5.283   4.263  0.5964  0.1363 -0.3532
 6882SOL    HW122087   5.177   5.335   4.343 -2.6594  2.9699 -2.0980
 6882SOL    HW222088   5.090   5.278   4.233  1.5888 -1.2739 -3.5944
 6883SOL     OW22089   1.655   1.286  11.457  0.2463 -0.0339  0.2037
 6883SOL    HW122090   1.578   1.241  11.491  0.6336 -1.4738 -0.7537
 6883SOL    HW222091   1.636   1.300  11.364  0.2800  1.5240  0.4033
 6884SOL     OW22092   3.153   3.013   2.902  0.4570 -0.2590 -0.2787
 6884SOL    HW122093   3.121   2.931   2.939  0.6304 -0.1474  0.1246
 6884SOL    HW222094   3.081   3.074   2.912  0.3473 -0.3436 -0.5303
 6885SOL     OW22095   1.877   0.968   6.456  0.1303 -0.5082  0.5882
 6885SOL    HW122096   1.867   0.981   6.550 -0.5441 -0.5036  0.5184
 6885SOL    HW222097   1.967   0.937   6.446  0.9033  1.4402  1.0287
 6886SOL     OW22098   3.044   3.475  10.649  0.0957 -0.4804 -0.4683
 6886SOL    HW122099   3.132   3.513  10.656 -0.3442  1.0826 -2.3411
 6886SOL    HW222100   3.021   3.452  10.738  1.5515  1.1639  0.4080
 6887SOL     OW22101   2.146   1.514   6.715 -0.7132  0.2439 -0.5891
 6887SOL    HW122102   2.222   1.568   6.737 -1.8342  1.2832  0.9686
 6887SOL    HW222103   2.180   1.424   6.713  0.4711  0.6335  0.6064
 6888SOL     OW22104   6.193   6.536  10.984  0.0610  0.2376 -0.0896
 6888SOL    HW122105   6.121   6.593  11.012  0.0299 -0.6347  1.7158
 6888SOL    HW222106   6.253   6.596  10.939 -2.1982  0.8183 -2.6122
 6889SOL     OW22107   3.534   5.685   0.882  0.2517  0.4259 -0.2586
 6889SOL    HW122108   3.624   5.699   0.912  0.4370  0.1294 -0.6627
 6889SOL    HW222109   3.526   5.742   0.805 -0.2414  1.2325  0.3792
 6890SOL     OW22110   4.412   4.633   0.492 -0.3695  0.7372  0.0273
 6890SOL    HW122111   4.463   4.572   0.440  0.1270 -0.4806  1.8364
 6890SOL    HW222112   4.325   4.594   0.498 -0.6111  1.2007 -0.4190
 6891SOL     OW22113   1.648   3.787   7.381 -0.4088 -0.2046 -0.1490
 6891SOL    HW122114   1.602   3.869   7.402 -0.7101 -0.1418 -0.9979
 6891SOL    HW222115   1.594   3.719   7.422 -1.2012 -0.1156 -0.9841
 6892SOL     OW22116   6.995   4.605   1.985 -0.0516  0.9016  0.2536
 6892SOL    HW122117   7.088   4.612   1.966  0.0585 -1.2114 -0.2175
 6892SOL    HW222118   6.983   4.515   2.015 -2.1806  0.6046 -1.2539
 6893SOL     OW22119   2.541   1.418   8.730 -0.1882 -0.3938 -0.0028
 6893SOL    HW122120   2.452   1.440   8.756 -0.2356 -0.2324 -0.3057
 6893SOL    HW222121   2.580   1.501   8.705  0.4080 -0.2852  1.2099
 6894SOL     OW22122   0.283   2.034   5.700 -0.6287  0.6097 -0.5033
 6894SOL    HW122123   0.223   2.009   5.630  1.8991  0.8149 -2.9240
 6894SOL    HW222124   0.284   2.129   5.698 -1.1462  0.6468  0.4128
 6895SOL     OW22125   2.022   7.369  10.122  0.1353  0.1235 -0.3488
 6895SOL    HW122126   2.024   7.363  10.218 -0.3856  0.1342 -0.3344
 6895SOL    HW222127   1.940   7.327  10.097  0.9623 -1.2482 -0.9041
 6896SOL     OW22128   0.338   0.368   6.049  0.0440 -0.3326  0.0908
 6896SOL    HW122129   0.420   0.318   6.053 -0.8429 -1.9495 -0.6297
 6896SOL    HW222130   0.269   0.301   6.055 -1.2228  0.9383  0.2945
 6897SOL     OW22131   6.520   2.533   6.425  0.0499  0.5442  0.3268
 6897SOL    HW122132   6.510   2.578   6.509 -1.2287 -2.9204  2.2484
 6897SOL    HW222133   6.471   2.587   6.362 -0.4437  2.3486  2.1725
 6898SOL     OW22134   1.598   3.779   8.377 -0.6170  0.3337  0.0211
 6898SOL    HW122135   1.608   3.873   8.392 -1.5318 -0.0137  3.5920
 6898SOL    HW222136   1.683   3.741   8.398 -0.6153  0.2209 -0.1802
 6899SOL     OW22137   1.597   6.055   7.727 -0.4557  0.6373 -0.1346
 6899SOL    HW122138   1.537   6.023   7.794 -0.3918  0.7061 -0.0444
 6899SOL    HW222139   1.623   5.976   7.679  2.1648  0.0137  2.0601
 6900SOL     OW22140   0.062   2.885   1.992  0.1668  0.3131  0.1004
 6900SOL    HW122141   0.025   2.895   2.080  1.1276 -0.0617  0.5566
 6900SOL    HW222142   0.018   2.952   1.940  0.9431  1.8128  1.2989
 6901SOL     OW22143   3.533   6.950   8.958 -0.0700  0.2570  0.0774
 6901SOL    HW122144   3.604   7.004   8.992  1.4385 -1.7638  0.2950
 6901SOL    HW222145   3.566   6.917   8.874 -1.8097  1.2953 -1.0845
 6902SOL     OW22146   0.843   7.344  11.345  0.1987  0.0262 -0.1496
 6902SOL    HW122147   0.793   7.418  11.311 -1.9930 -1.0026  0.6387
 6902SOL    HW222148   0.836   7.351  11.440  3.3186  0.9282  0.1421
 6903SOL     OW22149   2.234   5.656   2.472  0.4397  0.7149 -0.5591
 6903SOL    HW122150   2.193   5.735   2.436 -2.0779  0.0011  0.5750
 6903SOL    HW222151   2.252   5.601   2.395 -0.4212  1.2075 -1.1287
 6904SOL     OW22152   0.917   7.806   7.591  0.2700 -0.0179 -0.2070
 6904SOL    HW122153   0.955   7.719   7.602 -2.0058 -0.9462  0.9782
 6904SOL    HW222154   0.891   7.832   7.680 -1.5843  0.6215 -0.8820
 6905SOL     OW22155   4.892   0.702   9.884 -0.1338 -0.1697 -0.5773
 6905SOL    HW122156   4.851   0.724   9.801 -1.6281 -0.8529 -0.0556
 6905SOL    HW222157   4.961   0.640   9.861 -0.9969 -0.9085 -1.2642
 6906SOL     OW22158   4.782   7.906  11.771 -0.3717  0.2194 -0.0297
 6906SOL    HW122159   4.817   7.817  11.763  0.0824  0.4484 -0.7452
 6906SOL    HW222160   4.817   7.939  11.854 -1.8790 -0.8297  1.0824
 6907SOL     OW22161   7.436   3.267   8.697 -0.1068  0.0894 -0.0983
 6907SOL    HW122162   7.346   3.240   8.716  0.5408 -2.5903 -0.3578
 6907SOL    HW222163   7.440   3.359   8.722 -2.9791  0.3631 -0.3644
 6908SOL     OW22164   2.536   6.442   7.716 -0.7137  0.1694  0.0949
 6908SOL    HW122165   2.517   6.489   7.634 -1.0433 -1.2187 -0.6495
 6908SOL    HW222166   2.474   6.369   7.717 -0.0926 -0.3717  1.1377
 6909SOL     OW22167   7.900   2.107   2.393  0.1710  0.5664 -0.3398
 6909SOL    HW122168   7.874   2.015   2.388  0.6381  0.3838  0.4577
 6909SOL    HW222169   7.967   2.116   2.325 -1.8292  1.0386 -2.4121
 6910SOL     OW22170   2.654   3.929   0.236  0.0536 -0.4960  0.3038
 6910SOL    HW122171   2.729   3.989   0.235 -0.7980  0.5946  0.2350
 6910SOL    HW222172   2.624   3.930   0.327  1.3687 -2.5824  0.8353
 6911SOL     OW22173   5.398   7.237   0.356 -0.0353  0.0513 -0.5214
 6911SOL    HW122174   5.333   7.184   0.402 -0.8670  0.6863 -0.9584
 6911SOL    HW222175   5.463   7.258   0.424 -0.1865 -0.7280 -0.1241
 6912SOL     OW22176   6.122   7.831   0.935 -0.1129  0.2587 -0.3732
 6912SOL    HW122177   6.166   7.913   0.958  0.6933 -0.1553 -0.3974
 6912SOL    HW222178   6.029   7.850   0.943  0.0854  0.8799  0.6601
 6913SOL     OW22179   6.868   7.654   7.024  0.2553  0.3974  0.2850
 6913SOL    HW122180   6.883   7.719   6.956  1.2483  0.7486  0.8283
 6913SOL    HW222181   6.948   7.602   7.026 -0.7401 -1.2651 -0.5581
 6914SOL     OW22182   5.472   1.890   0.526  0.2269  0.0402 -1.0063
 6914SOL    HW122183   5.567   1.883   0.524  0.2869  0.5744 -0.2461
 6914SOL    HW222184   5.454   1.968   0.579 -0.6280  0.0024 -1.2230
 6915SOL     OW22185   2.000   3.673   7.554  0.1664  0.1203 -0.0426
 6915SOL    HW122186   2.027   3.747   7.501 -0.9671  0.6485  0.0840
 6915SOL    HW222187   1.911   3.653   7.524 -0.5982  0.5770  1.7654
 6916SOL     OW22188   0.253   1.449   0.700 -0.4188  0.5459  0.4179
 6916SOL    HW122189   0.285   1.377   0.754  0.0905  0.6508  0.2654
 6916SOL    HW222190   0.264   1.419   0.610 -1.1422  0.4229  0.3693
 6917SOL     OW22191   3.013   2.794  11.412 -0.8648 -0.1928  0.1198
 6917SOL    HW122192   2.995   2.753  11.496 -2.3563 -1.0130 -0.5666
 6917SOL    HW222193   2.960   2.745  11.349  0.0698  0.5217 -1.2758
 6918SOL     OW22194   3.734   7.616   9.434  0.0162  0.0736  0.3433
 6918SOL    HW122195   3.739   7.709   9.415 -1.0071  0.3506  1.3307
 6918SOL    HW222196   3.755   7.609   9.528  0.7822 -0.7726  0.1239
 6919SOL     OW22197   3.476   5.405  11.350 -0.5527 -0.0133 -0.7706
 6919SOL    HW122198   3.436   5.426  11.435  0.6447  1.7716 -0.5991
 6919SOL    HW222199   3.513   5.317  11.362  1.1124  0.8646  1.1940
 6920SOL     OW22200   0.625   4.283   9.441 -0.7963 -0.4851  0.4637
 6920SOL    HW122201   0.634   4.264   9.348  1.3014  1.3565  0.2288
 6920SOL    HW222202   0.698   4.238   9.482 -0.7632  0.0423  0.9961
 6921SOL     OW22203   4.539   0.046   1.323 -0.0278 -0.2608 -0.1172
 6921SOL    HW122204   4.551   0.026   1.416 -0.5831  1.4454  0.3759
 6921SOL    HW222205   4.444   0.045   1.311  0.0102  0.1748 -0.4864
 6922SOL     OW22206   7.650   6.427   5.912 -0.0536 -0.0895  0.5319
 6922SOL    HW122207   7.736   6.444   5.951 -0.2032  0.9981  0.4159
 6922SOL    HW222208   7.610   6.513   5.904 -0.4136 -0.3776 -1.1419
 6923SOL     OW22209   0.162   2.174   5.922  0.6449  0.5690  0.2372
 6923SOL    HW122210   0.085   2.156   5.868  1.0577  0.0600 -0.1910
 6923SOL    HW222211   0.140   2.255   5.969 -0.5456 -0.1043  0.8827
 6924SOL     OW22212   1.888   2.498   9.067 -0.3387  0.1876 -0.5115
 6924SOL    HW122213   1.891   2.551   8.987  3.2388  1.5286  0.3226
 6924SOL    HW222214   1.853   2.557   9.133  1.7308  0.9860 -0.0344
 6925SOL     OW22215   7.656   3.388  10.663  0.1238 -0.2558  0.2787
 6925SOL    HW122216   7.621   3.382  10.575  0.4900  0.4962  0.0720
 6925SOL    HW222217   7.642   3.301  10.700  2.5732 -1.5439 -1.5158
 6926SOL     OW22218   3.187   1.803   7.438 -0.1019  0.2237  0.5717
 6926SOL    HW122219   3.132   1.783   7.362 -0.1084  0.5987  0.4735
 6926SOL    HW222220   3.266   1.842   7.402 -0.0223  0.2278  0.7467
 6927SOL     OW22221   3.593   7.230   7.993 -0.7065  0.3700  0.4486
 6927SOL    HW122222   3.525   7.164   7.980 -0.3703  0.0277  0.3982
 6927SOL    HW222223   3.644   7.197   8.066  1.1721 -0.8898 -1.3118
 6928SOL     OW22224   7.450   0.987  10.540 -0.0480  0.0483 -0.3097
 6928SOL    HW122225   7.378   0.927  10.520  1.2718 -1.3583 -0.9842
 6928SOL    HW222226   7.455   1.046  10.465 -1.1962  0.9100  0.2523
 6929SOL     OW22227   3.278   3.455   0.115  0.6479 -0.1435  0.0321
 6929SOL    HW122228   3.315   3.533   0.073 -0.4486  0.6461  0.4946
 6929SOL    HW222229   3.300   3.383   0.056 -3.5488  1.2328 -3.8100
 6930SOL     OW22230   7.551   3.058  10.075  0.8753 -0.3679 -0.5506
 6930SOL    HW122231   7.554   2.979  10.020  1.6920 -1.5707  1.1213
 6930SOL    HW222232   7.634   3.055  10.123  0.5173  1.0556  0.1807
 6931SOL     OW22233   0.820   6.864   0.098 -0.3464 -0.3328  0.0616
 6931SOL    HW122234   0.883   6.867   0.026  1.2131 -0.5929  1.3471
 6931SOL    HW222235   0.798   6.771   0.106  1.5574 -0.7110  1.5698
 6932SOL     OW22236   5.132   6.292   5.413  0.1688  0.2283 -0.2832
 6932SOL    HW122237   5.225   6.277   5.432  0.4165  0.6763 -1.1132
 6932SOL    HW222238   5.131   6.325   5.324 -0.8857 -0.8037 -0.6769
 6933SOL     OW22239   4.998   4.600   3.641  0.0713  0.2703 -0.5670
 6933SOL    HW122240   5.043   4.520   3.613  1.4672  0.5495  0.7441
 6933SOL    HW222241   5.066   4.652   3.683 -1.4444  0.8075  1.3598
 6934SOL     OW22242   3.367   2.525  10.508  0.1322 -0.0057 -0.5877
 6934SOL    HW122243   3.295   2.466  10.485 -1.4245  0.8839  1.6246
 6934SOL    HW222244   3.384   2.575  10.429 -1.3571 -0.5802 -1.3057
 6935SOL     OW22245   3.658   5.411   1.013  0.2853  0.3008 -0.1636
 6935SOL    HW122246   3.729   5.362   1.053  0.6133 -0.3349 -1.4466
 6935SOL    HW222247   3.701   5.472   0.953 -0.1290  2.0433  1.2310
 6936SOL     OW22248   3.633   7.744   8.634 -0.0509 -0.0622  0.2055
 6936SOL    HW122249   3.685   7.752   8.554  0.7544 -0.7781  0.6421
 6936SOL    HW222250   3.543   7.760   8.605  0.0946 -1.2919 -1.0471
 6937SOL     OW22251   4.790   0.490  10.691  0.6205  0.3906 -0.0655
 6937SOL    HW122252   4.808   0.406  10.733  0.8849  0.7665  0.5913
 6937SOL    HW222253   4.838   0.554  10.743 -0.3041  1.0629  0.0005
 6938SOL     OW22254   7.504   3.364   9.461  0.1180  0.2591  0.0093
 6938SOL    HW122255   7.554   3.328   9.534  0.0004  0.2138  0.0693
 6938SOL    HW222256   7.432   3.302   9.449  0.4129  0.0088 -0.4656
 6939SOL     OW22257   3.432   6.213   0.293  0.2351  0.0153  0.2414
 6939SOL    HW122258   3.504   6.273   0.313  2.0758 -1.5059 -1.4476
 6939SOL    HW222259   3.364   6.269   0.254  1.0998  1.2587  0.4638
 6940SOL     OW22260   2.825   7.708   2.409  0.1665 -0.2612  0.1201
 6940SOL    HW122261   2.919   7.726   2.420  0.1434 -0.8163  1.4092
 6940SOL    HW222262   2.818   7.669   2.322  0.9718  0.8166 -0.4480
 6941SOL     OW22263   5.460   2.129   0.694  0.2560  0.4132  0.6774
 6941SOL    HW122264   5.395   2.188   0.733 -1.0668 -0.5569  0.0230
 6941SOL    HW222265   5.465   2.155   0.602  0.1281 -0.0940  0.5238
 6942SOL     OW22266   1.485   3.092  11.387  0.2414 -0.0585 -0.1532
 6942SOL    HW122267   1.449   3.040  11.458 -1.3493  1.2393  0.0326
 6942SOL    HW222268   1.433   3.172  11.386  3.5559  2.2980  0.5749
 6943SOL     OW22269   0.166   3.216  11.816 -0.0464 -0.2352 -0.1858
 6943SOL    HW122270   0.257   3.209  11.786 -0.1286  0.9404 -0.8019
 6943SOL    HW222271   0.155   3.145  11.879  0.6668 -1.7115 -1.6610
 6944SOL     OW22272   6.787   1.102   4.740  0.2698 -0.2170  0.3749
 6944SOL    HW122273   6.726   1.117   4.668  1.4968  1.9113 -0.2949
 6944SOL    HW222274   6.836   1.024   4.714  0.8445  0.6369 -1.2491
 6945SOL     OW22275   3.499   5.651   9.547  0.4046  0.6271 -0.2432
 6945SOL    HW122276   3.560   5.578   9.563  0.3832  0.6127 -0.2275
 6945SOL    HW222277   3.467   5.636   9.458 -0.5479 -0.0771  0.1992
 6946SOL     OW22278   1.531   0.688  12.092 -0.1351 -0.4434 -0.2544
 6946SOL    HW122279   1.556   0.776  12.120 -1.4037 -0.3056  0.5290
 6946SOL    HW222280   1.481   0.702  12.011 -2.8355 -0.0958  1.3465
 6947SOL     OW22281   5.203   0.611  10.602  0.3589  0.2814 -0.3225
 6947SOL    HW122282   5.153   0.672  10.656 -1.0933 -1.6692  0.6573
 6947SOL    HW222283   5.286   0.601  10.648  0.2005  0.7324  0.0639
 6948SOL     OW22284   2.182   5.046   7.381 -0.1620 -0.2193 -0.1679
 6948SOL    HW122285   2.258   5.097   7.352 -0.4194  0.1134 -0.2651
 6948SOL    HW222286   2.216   4.988   7.448  0.3967 -0.8190 -0.9519
 6949SOL     OW22287   3.278   4.283   1.701 -0.2470  0.6320 -0.0542
 6949SOL    HW122288   3.238   4.330   1.627  1.3883  1.4166 -0.5056
 6949SOL    HW222289   3.205   4.243   1.747 -1.5376  2.0566 -0.7802
 6950SOL     OW22290   1.616   4.289   4.974  0.4586 -0.0472  0.4096
 6950SOL    HW122291   1.649   4.320   5.059  0.5581  0.7101  0.1018
 6950SOL    HW222292   1.619   4.366   4.918 -1.0372 -0.1728  0.1365
 6951SOL     OW22293   4.902   6.527   2.667  0.4566 -0.1111 -0.5786
 6951SOL    HW122294   4.964   6.527   2.740  0.4980 -0.6055 -0.6088
 6951SOL    HW222295   4.956   6.539   2.589  0.2938  1.8014 -0.4575
 6952SOL     OW22296   3.344   2.161   4.602  0.5467  0.0815  0.0624
 6952SOL    HW122297   3.354   2.246   4.558  1.6828  0.1431  0.3961
 6952SOL    HW222298   3.378   2.097   4.540  1.3616  0.0795  0.4873
 6953SOL     OW22299   5.637   4.903   5.690 -0.0528 -0.1106 -0.2935
 6953SOL    HW122300   5.717   4.954   5.701 -0.9279  1.1361  0.6215
 6953SOL    HW222301   5.617   4.910   5.597 -0.0216  1.0442 -0.2263
 6954SOL     OW22302   7.893   7.754  11.423  0.2750 -0.9459 -0.2005
 6954SOL    HW122303   7.896   7.790  11.335 -0.3599 -3.0941 -1.1648
 6954SOL    HW222304   7.958   7.805  11.472  1.1884 -0.1985 -2.0920
 6955SOL     OW22305   0.745   5.724   2.310  0.1862 -0.2943 -0.2871
 6955SOL    HW122306   0.827   5.760   2.276  0.3803  0.3076  0.7494
 6955SOL    HW222307   0.771   5.644   2.355  0.3141  0.2012  0.5479
 6956SOL     OW22308   4.997   6.129   9.807 -0.2248  0.0013 -0.2232
 6956SOL    HW122309   5.023   6.040   9.830 -1.1943 -0.0131  0.8513
 6956SOL    HW222310   4.983   6.173   9.891 -1.6902  0.5892 -0.7479
 6957SOL     OW22311   0.093   6.601   9.201 -0.4472 -0.2663 -0.2000
 6957SOL    HW122312   0.083   6.626   9.109 -0.7013 -0.7058 -0.2928
 6957SOL    HW222313   0.162   6.535   9.200  0.1954  0.3819  0.0407
 6958SOL     OW22314   1.223   1.876   1.137 -0.4740  0.0068  0.3016
 6958SOL    HW122315   1.301   1.883   1.082  0.2885  1.7862  1.5216
 6958SOL    HW222316   1.201   1.966   1.159 -2.9133 -0.4512 -0.0155
 6959SOL     OW22317   2.543   3.960  11.959  0.1954  0.0332 -0.3777
 6959SOL    HW122318   2.481   3.893  11.930  1.8417 -3.2502  2.9561
 6959SOL    HW222319   2.490   4.039  11.967 -2.6935 -1.6729 -1.2280
 6960SOL     OW22320   2.289   0.782  10.609 -0.1127 -0.2721 -0.0596
 6960SOL    HW122321   2.214   0.779  10.668  0.1379 -1.8013  0.2262
 6960SOL    HW222322   2.339   0.859  10.637 -0.4862 -0.4409  1.1127
 6961SOL     OW22323   1.481   0.832   4.324  0.3900 -0.2266  0.1902
 6961SOL    HW122324   1.515   0.887   4.395  1.6483  0.5798 -1.0034
 6961SOL    HW222325   1.547   0.764   4.313  0.5988  0.1143 -0.7317
 6962SOL     OW22326   7.545   0.392   2.474  0.1097  0.0625  0.1324
 6962SOL    HW122327   7.563   0.375   2.381  1.7145  0.1267  0.3998
 6962SOL    HW222328   7.530   0.487   2.478  0.2919  0.0986 -0.0202
 6963SOL     OW22329   1.741   0.706  11.091 -0.1830 -0.1310  0.1595
 6963SOL    HW122330   1.713   0.648  11.162 -2.6972 -2.4972 -2.4716
 6963SOL    HW222331   1.698   0.789  11.110 -2.6926 -1.3770  0.3515
 6964SOL     OW22332   4.604   0.361   9.322 -0.4652  0.1655 -0.3160
 6964SOL    HW122333   4.551   0.407   9.257  2.0499  2.6251 -0.8141
 6964SOL    HW222334   4.692   0.361   9.286  0.3854 -1.5497  1.5722
 6965SOL     OW22335   6.941   7.591   4.090 -0.2714  0.6710 -0.0901
 6965SOL    HW122336   7.016   7.643   4.059 -0.2639  0.7721  0.0992
 6965SOL    HW222337   6.866   7.650   4.080  0.0129  1.4968  2.1061
 6966SOL     OW22338   3.858   7.799   6.914  0.0338  0.1903  0.1052
 6966SOL    HW122339   3.813   7.785   6.830  0.3468 -0.8352  0.0967
 6966SOL    HW222340   3.886   7.891   6.911  0.3990  0.0549 -1.0849
 6967SOL     OW22341   2.993   3.199   6.079 -0.2210 -0.4030  0.2749
 6967SOL    HW122342   2.910   3.226   6.039  0.5583  1.3449 -0.2407
 6967SOL    HW222343   2.980   3.106   6.099 -1.2590 -0.9502 -2.4724
 6968SOL     OW22344   3.140   0.273  12.351  0.1380 -0.4789 -0.7712
 6968SOL    HW122345   3.096   0.252  12.269  0.3488 -0.1873 -0.9596
 6968SOL    HW222346   3.070   0.274  12.416 -0.1555  0.0997 -1.0884
 6969SOL     OW22347   4.473   0.176   5.020  0.1098 -0.7082 -0.1361
 6969SOL    HW122348   4.506   0.200   4.933  0.1775 -1.7297 -0.4081
 6969SOL    HW222349   4.382   0.152   5.005 -0.5921  1.4340  0.4977
 6970SOL     OW22350   1.163   7.313   4.232 -0.0723  0.8555 -0.1682
 6970SOL    HW122351   1.246   7.359   4.242  0.7592 -0.9334  2.3395
 6970SOL    HW222352   1.188   7.223   4.213 -1.4901  0.5244 -0.5799
 6971SOL     OW22353   0.425   3.443   2.156 -0.0097 -0.4392 -0.4540
 6971SOL    HW122354   0.369   3.512   2.192  0.2715 -0.9332  0.9930
 6971SOL    HW222355   0.495   3.490   2.111  0.0229  0.2225  0.2708
 6972SOL     OW22356   2.820   4.058  11.559 -0.0311 -0.2683 -0.2326
 6972SOL    HW122357   2.821   3.966  11.583 -0.6549 -0.0831  0.5402
 6972SOL    HW222358   2.867   4.102  11.630  0.8487 -0.0526 -0.9273
 6973SOL     OW22359   6.653   3.103   5.973  0.3976  0.0558 -0.1599
 6973SOL    HW122360   6.719   3.152   5.924 -1.3856  1.4205 -1.3291
 6973SOL    HW222361   6.575   3.158   5.969  0.0204  0.1662  4.0477
 6974SOL     OW22362   5.463   6.212   0.461  0.3990 -0.4110 -0.1017
 6974SOL    HW122363   5.548   6.221   0.503  0.0714  1.2558  0.2645
 6974SOL    HW222364   5.475   6.251   0.374  0.3516 -1.4068 -0.5717
 6975SOL     OW22365   7.699   0.815   4.521 -0.7609 -0.3740  0.1393
 6975SOL    HW122366   7.646   0.887   4.554  0.2814  0.3363  0.2819
 6975SOL    HW222367   7.681   0.743   4.581 -0.6633  0.2094  0.8762
 6976SOL     OW22368   3.448   7.519   4.212  0.0646 -0.5152 -0.2906
 6976SOL    HW122369   3.381   7.471   4.261  0.3790 -1.4928 -0.7976
 6976SOL    HW222370   3.506   7.451   4.178  1.0183  0.2821 -0.3035
 6977SOL     OW22371   1.203   7.146   5.027  0.0446 -0.0418  0.5559
 6977SOL    HW122372   1.141   7.119   4.960  0.1529 -2.6861  1.3944
 6977SOL    HW222373   1.289   7.116   4.995  0.5730  1.4908  0.4691
 6978SOL     OW22374   1.771   5.731   5.981  0.0505 -0.0795  0.1837
 6978SOL    HW122375   1.801   5.678   5.907  1.5233  0.3926  0.4141
 6978SOL    HW222376   1.684   5.695   6.002 -0.4803 -0.1133 -1.8566
 6979SOL     OW22377   7.577   0.821   9.523  0.0026  0.0690  0.1259
 6979SOL    HW122378   7.526   0.796   9.447  1.0661  1.5789 -1.1590
 6979SOL    HW222379   7.521   0.802   9.598 -2.1884  1.1279 -1.1739
 6980SOL     OW22380   0.919   4.765   4.431  0.0034  0.0591 -0.2738
 6980SOL    HW122381   0.857   4.696   4.408 -0.8272 -0.1800  2.3459
 6980SOL    HW222382   0.865   4.841   4.451  0.4818 -0.0994  1.8865
 6981SOL     OW22383   5.605   4.563   7.024 -0.0289 -0.2758 -0.6100
 6981SOL    HW122384   5.569   4.584   7.110  0.1484 -3.5477  0.3908
 6981SOL    HW222385   5.539   4.507   6.983  0.3387  0.4227 -2.2746
 6982SOL     OW22386   7.669   6.592   4.387  0.5161  0.1995 -0.1444
 6982SOL    HW122387   7.626   6.539   4.454  0.4266  0.4006 -0.0425
 6982SOL    HW222388   7.649   6.548   4.304  1.3258 -0.5212  0.0334
 6983SOL     OW22389   5.474   1.393   6.209 -0.3275  0.0984  0.1745
 6983SOL    HW122390   5.510   1.469   6.164 -0.8826 -1.0880 -2.4400
 6983SOL    HW222391   5.389   1.377   6.167 -0.8030 -1.2291  1.5251
 6984SOL     OW22392   1.106   5.176   7.955 -0.9523  0.0410 -0.8320
 6984SOL    HW122393   1.118   5.234   7.879  0.6267  0.0071 -0.6232
 6984SOL    HW222394   1.012   5.183   7.975 -1.0217  1.5755 -1.5636
 6985SOL     OW22395   4.871   0.021   9.242 -0.6690 -0.1683 -0.2952
 6985SOL    HW122396   4.899  -0.070   9.257 -0.7762 -0.4824 -1.7813
 6985SOL    HW222397   4.944   0.074   9.273  0.4225 -0.8723 -1.5246
 6986SOL     OW22398   5.649   3.707   4.115 -0.2858  0.1795  0.5491
 6986SOL    HW122399   5.710   3.708   4.041 -0.4378  1.0931  0.4269
 6986SOL    HW222400   5.701   3.675   4.188  0.0203 -0.1767  0.1820
 6987SOL     OW22401   1.420   7.344   7.823 -0.1398  0.1636 -0.3671
 6987SOL    HW122402   1.430   7.425   7.772  0.8970 -0.4071 -1.0965
 6987SOL    HW222403   1.494   7.344   7.883 -1.1465  0.6431  0.9447
 6988SOL     OW22404   1.836   6.870   8.433  0.5101  0.2531 -0.4266
 6988SOL    HW122405   1.772   6.889   8.502  0.2972  0.1041 -0.5778
 6988SOL    HW222406   1.869   6.783   8.454 -0.2472 -0.2015 -1.0168
 6989SOL     OW22407   6.149   2.083   8.755  0.6925 -0.1547  0.2350
 6989SOL    HW122408   6.071   2.107   8.705  1.8128  2.0134 -0.5749
 6989SOL    HW222409   6.173   2.163   8.801  1.6497 -1.1874  1.6077
 6990SOL     OW22410   3.812   7.843   4.706 -0.4520 -0.1828 -0.1892
 6990SOL    HW122411   3.735   7.817   4.756 -0.2171  0.3865  0.4992
 6990SOL    HW222412   3.862   7.763   4.695 -1.3664 -0.6463 -1.0598
 6991SOL     OW22413   5.104   4.640   3.320  0.3337 -0.8763  0.6457
 6991SOL    HW122414   5.084   4.576   3.252  1.4356 -0.8563  0.2884
 6991SOL    HW222415   5.141   4.589   3.392  2.2245 -0.5803 -0.0494
 6992SOL     OW22416   3.476   3.035   5.816  0.0036 -0.2200  0.3249
 6992SOL    HW122417   3.556   3.037   5.763 -0.6394 -2.4947 -0.8858
 6992SOL    HW222418   3.455   2.942   5.825 -0.6525  0.1019  3.5816
 6993SOL     OW22419   5.670   6.175   8.334  0.3692 -0.2426  0.2851
 6993SOL    HW122420   5.587   6.127   8.333 -0.1343  0.5652 -1.2152
 6993SOL    HW222421   5.659   6.241   8.403 -0.0362 -0.4780  0.4468
 6994SOL     OW22422   7.751   3.793   3.872  0.0564  0.0849  0.2443
 6994SOL    HW122423   7.694   3.848   3.927 -0.1729  0.0657  0.0245
 6994SOL    HW222424   7.716   3.705   3.882 -1.2645  0.3569 -1.5313
 6995SOL     OW22425   0.945   1.816   7.789 -0.4122  0.3696 -0.1404
 6995SOL    HW122426   1.000   1.891   7.764  0.6838 -0.4427 -0.2271
 6995SOL    HW222427   0.863   1.830   7.741  0.0252  1.1680 -0.6890
 6996SOL     OW22428   5.048   1.210   0.169 -0.0686  0.1059 -0.5541
 6996SOL    HW122429   5.124   1.155   0.188 -0.0163 -0.1387 -1.4086
 6996SOL    HW222430   4.985   1.150   0.129 -1.1315  0.0872  1.0566
 6997SOL     OW22431   7.090   3.488  11.259 -0.2430 -0.1273  0.2158
 6997SOL    HW122432   7.081   3.424  11.329 -0.7799 -0.7068 -0.3657
 6997SOL    HW222433   7.080   3.573  11.301 -2.9144 -0.5179  0.5105
 6998SOL     OW22434   7.367   3.544   7.940  0.9005  0.3867  1.0022
 6998SOL    HW122435   7.344   3.634   7.961  0.3375  0.6793 -0.6726
 6998SOL    HW222436   7.421   3.550   7.861  0.3663 -0.7489  0.5158
 6999SOL     OW22437   6.964   1.317  10.812 -0.1632 -0.5259 -0.6735
 6999SOL    HW122438   6.944   1.260  10.738  0.1087 -2.4657  0.6593
 6999SOL    HW222439   6.974   1.404  10.774  3.1616 -1.8788 -3.4657
 7000SOL     OW22440   1.099   2.600   5.821  0.5191  0.5280  0.0385
 7000SOL    HW122441   1.049   2.523   5.794  0.9677 -0.0501  0.8075
 7000SOL    HW222442   1.033   2.670   5.827  0.0043  0.0627 -0.0845
 7001SOL     OW22443   1.530   3.935   8.693 -0.1111 -0.0969 -0.0248
 7001SOL    HW122444   1.476   3.858   8.676 -0.0594  0.0006 -0.6396
 7001SOL    HW222445   1.522   3.988   8.614 -0.9055  0.9987  0.7674
 7002SOL     OW22446   0.511   6.580   5.818  0.0751 -0.4488  0.0679
 7002SOL    HW122447   0.476   6.549   5.734  0.3131  0.1228 -0.2496
 7002SOL    HW222448   0.518   6.675   5.807 -2.2775 -0.0242  1.6188
 7003SOL     OW22449   2.329   6.082   1.485 -0.4130  0.3833 -0.3696
 7003SOL    HW122450   2.240   6.088   1.520 -0.3668 -1.5144  0.2086
 7003SOL    HW222451   2.347   6.168   1.449 -1.6551  1.4869  1.4890
 7004SOL     OW22452   6.453   5.562   8.667 -0.2798  0.7066  0.4030
 7004SOL    HW122453   6.441   5.490   8.606  0.2925  1.1706 -0.2837
 7004SOL    HW222454   6.545   5.586   8.657 -0.2727  1.0281  1.1879
 7005SOL     OW22455   4.107   1.584   3.172  0.4605 -0.0648  0.6084
 7005SOL    HW122456   4.131   1.657   3.114  1.2430  0.4887  1.6074
 7005SOL    HW222457   4.069   1.627   3.249 -1.6568 -0.8337  0.0564
 7006SOL     OW22458   5.316   5.600   7.610 -0.0886 -0.2129 -0.0296
 7006SOL    HW122459   5.262   5.672   7.641 -0.4927 -0.5309  0.0058
 7006SOL    HW222460   5.284   5.581   7.522 -0.4404 -0.7962  0.2165
 7007SOL     OW22461   0.501   5.599   7.048  0.3745  0.4985  0.4848
 7007SOL    HW122462   0.516   5.615   6.955  0.6985 -0.2636  0.3990
 7007SOL    HW222463   0.509   5.685   7.089  0.7035  0.7650 -0.1284
 7008SOL     OW22464   6.216   0.355  11.560  0.0941 -0.2401  0.3540
 7008SOL    HW122465   6.220   0.348  11.465 -0.8352  0.6288  0.2289
 7008SOL    HW222466   6.257   0.274  11.592  1.0493 -0.2252 -0.7619
 7009SOL     OW22467   5.454   6.583   9.514 -0.1443 -0.0877 -0.2154
 7009SOL    HW122468   5.529   6.598   9.572 -1.1101  0.1160  1.0272
 7009SOL    HW222469   5.439   6.489   9.517 -0.0929 -0.0971 -0.2574
 7010SOL     OW22470   3.989   2.145   4.229 -0.0390  0.4347  0.0685
 7010SOL    HW122471   4.058   2.153   4.163 -1.2355  0.3716 -1.2062
 7010SOL    HW222472   3.954   2.057   4.218  0.1666  0.1821  1.2398
 7011SOL     OW22473   2.456   1.609   8.978  0.1141 -0.1350  0.3333
 7011SOL    HW122474   2.428   1.700   8.987 -1.6650 -0.6301  0.2339
 7011SOL    HW222475   2.389   1.569   8.922  2.3212 -0.8834 -1.9388
 7012SOL     OW22476   4.632   5.456   8.607 -0.0214 -0.0426  0.1012
 7012SOL    HW122477   4.666   5.445   8.696  0.6378  0.1209 -0.1218
 7012SOL    HW222478   4.592   5.543   8.607  1.1840  0.5311 -0.1241
 7013SOL     OW22479   7.103   7.519   5.459  0.8289 -0.5038  0.3967
 7013SOL    HW122480   7.092   7.477   5.544 -1.4991 -1.1715 -0.1674
 7013SOL    HW222481   7.192   7.496   5.432  1.2658 -1.0873  2.1969
 7014SOL     OW22482   2.803   7.208   8.364  0.4594  0.1452 -0.4634
 7014SOL    HW122483   2.833   7.139   8.304  0.2113  1.0732 -1.6809
 7014SOL    HW222484   2.848   7.287   8.335  1.8554  0.2942  1.7997
 7015SOL     OW22485   1.250   7.681   6.442 -0.1049  0.0875  0.3765
 7015SOL    HW122486   1.340   7.652   6.427  0.4424  1.1799  1.3232
 7015SOL    HW222487   1.244   7.690   6.537 -2.5882 -4.1035  0.8502
 7016SOL     OW22488   6.243   4.606   8.917  0.3258 -0.0755  0.1317
 7016SOL    HW122489   6.315   4.639   8.864 -0.0762 -0.9498 -0.9934
 7016SOL    HW222490   6.230   4.673   8.985  0.7280  1.1573 -0.9750
 7017SOL     OW22491   5.791   1.242  11.200 -0.2861 -0.9770 -0.4667
 7017SOL    HW122492   5.742   1.292  11.266 -1.6521 -0.8777 -1.5040
 7017SOL    HW222493   5.838   1.309  11.150 -0.3938 -0.9227 -0.4958
 7018SOL     OW22494   6.227   3.112   6.940 -0.1533 -0.0474 -0.1963
 7018SOL    HW122495   6.259   3.195   6.904  1.1489 -0.5393 -0.2356
 7018SOL    HW222496   6.132   3.115   6.927  0.0243  0.8178 -1.4908
 7019SOL     OW22497   2.176   3.154   2.042 -0.0883  0.0642  0.4314
 7019SOL    HW122498   2.113   3.135   1.972  0.3163 -2.9483  0.7204
 7019SOL    HW222499   2.262   3.147   1.999  0.1353 -0.7892  0.9862
 7020SOL     OW22500   5.108   3.274  10.385  0.3886 -0.0224 -0.0899
 7020SOL    HW122501   5.067   3.191  10.360  0.0540  0.3275 -0.7257
 7020SOL    HW222502   5.134   3.314  10.302  0.3766  0.5976  0.1993
 7021SOL     OW22503   0.403   0.410   9.018  0.5160  0.3920  0.3872
 7021SOL    HW122504   0.382   0.463   9.095  0.2005  1.5844 -0.4931
 7021SOL    HW222505   0.373   0.322   9.041  0.0388  0.8166  1.4646
 7022SOL     OW22506   2.635   0.782   5.593  0.2713  0.3142  0.4852
 7022SOL    HW122507   2.600   0.783   5.504  0.9999 -1.9654  0.1184
 7022SOL    HW222508   2.728   0.805   5.583  0.3962 -0.1227  0.6385
 7023SOL     OW22509   6.139   2.397  11.515 -0.2995  0.1125 -0.0727
 7023SOL    HW122510   6.125   2.402  11.609 -0.3156 -0.1986 -0.0573
 7023SOL    HW222511   6.115   2.484  11.482 -0.6376  0.1080  0.1622
 7024SOL     OW22512   6.933   4.123   8.759  0.2214  0.1577 -0.2589
 7024SOL    HW122513   6.886   4.095   8.680 -0.6646 -0.3322  0.4177
 7024SOL    HW222514   6.878   4.192   8.796  0.1940 -0.1922  0.3680
 7025SOL     OW22515   6.358   0.391   6.006  0.0614  0.1499 -0.1155
 7025SOL    HW122516   6.377   0.483   6.027 -2.1061  0.7354 -0.4727
 7025SOL    HW222517   6.444   0.348   6.008  0.8840  1.6686  2.3870
 7026SOL     OW22518   0.663   6.535  10.622  0.3251  0.5910  0.5602
 7026SOL    HW122519   0.680   6.475  10.550  0.3778  0.7836  0.4125
 7026SOL    HW222520   0.629   6.479  10.692  0.3717  0.3899  0.4231
 7027SOL     OW22521   6.278   2.006   0.763 -0.0588 -0.7309 -0.0572
 7027SOL    HW122522   6.243   1.948   0.695 -0.8698  0.0640 -0.3339
 7027SOL    HW222523   6.274   2.093   0.725  0.5856 -0.4111  0.5801
 7028SOL     OW22524   6.686   7.051   6.854 -0.3147 -0.1544 -0.2788
 7028SOL    HW122525   6.705   6.957   6.861 -1.4389 -0.3442  0.5753
 7028SOL    HW222526   6.744   7.092   6.918  0.5902 -0.1855 -1.0553
 7029SOL     OW22527   0.999   1.722  10.493  0.4613 -0.0206 -0.4958
 7029SOL    HW122528   1.079   1.717  10.440 -0.0469 -1.0483 -1.2030
 7029SOL    HW222529   0.937   1.769  10.438  0.1444 -0.4765 -0.5320
 7030SOL     OW22530   3.141   0.935   4.067 -0.0044  0.6718  0.5092
 7030SOL    HW122531   3.103   0.932   4.155  0.9786 -1.8826  0.9292
 7030SOL    HW222532   3.222   0.984   4.078 -0.0489  0.6539  0.9689
 7031SOL     OW22533   4.805   0.149  11.537 -0.0119 -0.4122 -0.3292
 7031SOL    HW122534   4.722   0.175  11.497  0.1541  0.2000 -0.2907
 7031SOL    HW222535   4.789   0.061  11.571 -0.8343 -0.0625  0.2306
 7032SOL     OW22536   0.516   2.587  10.912 -0.7370  0.3599 -0.3997
 7032SOL    HW122537   0.454   2.647  10.871 -0.7071 -0.4517 -1.6885
 7032SOL    HW222538   0.472   2.502  10.911  0.2301 -0.1523 -0.9950
 7033SOL     OW22539   5.918   5.510   5.732 -0.0287 -0.0365  0.3449
 7033SOL    HW122540   5.905   5.487   5.640 -0.0912  1.3216  0.0026
 7033SOL    HW222541   5.866   5.445   5.780 -2.6014  1.0700 -0.7083
 7034SOL     OW22542   4.230   6.029   8.610  0.0299 -0.4015  0.0530
 7034SOL    HW122543   4.276   6.005   8.530 -0.2403  0.1198 -0.2688
 7034SOL    HW222544   4.155   5.970   8.614  0.2582 -0.6841  0.1261
 7035SOL     OW22545   2.831   5.573   4.061 -0.3064 -0.3327 -0.3591
 7035SOL    HW122546   2.837   5.666   4.080  1.9975 -0.1601 -1.5949
 7035SOL    HW222547   2.828   5.568   3.966 -0.4297 -1.5197 -0.3098
 7036SOL     OW22548   2.446   6.626   2.115 -0.4746 -0.5760 -0.3957
 7036SOL    HW122549   2.540   6.616   2.132 -0.8383 -0.7572  1.6557
 7036SOL    HW222550   2.438   6.713   2.075  0.6583 -1.0002 -1.6214
 7037SOL     OW22551   7.513   4.793   8.047 -0.3874 -0.1633 -0.2288
 7037SOL    HW122552   7.546   4.742   7.973 -1.5944 -0.7412 -0.4069
 7037SOL    HW222553   7.531   4.884   8.024 -2.4052 -0.1586 -2.1876
 7038SOL     OW22554   3.733   6.712   1.988  0.4738  0.5293 -0.1930
 7038SOL    HW122555   3.806   6.772   2.004  0.3025  0.8034 -0.4294
 7038SOL    HW222556   3.758   6.631   2.031  1.6542  0.0938 -1.6235
 7039SOL     OW22557   7.484   3.731  10.789 -0.2670 -0.2615 -0.3918
 7039SOL    HW122558   7.464   3.702  10.878 -3.1729  0.0522 -0.8410
 7039SOL    HW222559   7.409   3.703  10.737  0.1324  1.8008 -2.2394
 7040SOL     OW22560   0.152   4.622   7.903  0.1958 -0.1280 -0.6548
 7040SOL    HW122561   0.115   4.558   7.842 -1.0071 -0.1013  0.0118
 7040SOL    HW222562   0.101   4.610   7.983  2.4841 -0.9978  0.7945
 7041SOL     OW22563   7.009   6.317  11.333 -0.4961  0.2620  0.1657
 7041SOL    HW122564   6.944   6.319  11.404 -1.7122  1.3083 -0.9227
 7041SOL    HW222565   7.011   6.406  11.299 -0.0740 -0.2466 -1.2302
 7042SOL     OW22566   1.939   1.864   7.587 -0.0602  0.7823  0.5586
 7042SOL    HW122567   1.951   1.776   7.623  0.6247  0.2831 -0.7999
 7042SOL    HW222568   1.969   1.856   7.496  0.2443  2.4796  0.4862
 7043SOL     OW22569   2.173   6.149   0.460  0.2918 -0.5017 -0.4255
 7043SOL    HW122570   2.118   6.183   0.390 -1.8954 -0.9801  0.9615
 7043SOL    HW222571   2.191   6.225   0.516 -1.7875 -0.8702  0.8624
 7044SOL     OW22572   5.409   0.468   9.978  0.0502 -0.6626  0.2639
 7044SOL    HW122573   5.351   0.530   9.933  1.1654  1.0265  1.0388
 7044SOL    HW222574   5.497   0.496   9.954  0.6031 -1.2249  1.5610
 7045SOL     OW22575   2.659   5.935   6.209  0.3831 -0.3261  0.6268
 7045SOL    HW122576   2.635   6.002   6.274  0.4219 -1.7488  2.1666
 7045SOL    HW222577   2.742   5.899   6.241  0.0218 -1.5719  0.2106
 7046SOL     OW22578   0.020   6.419   3.972  0.8363 -0.1686 -0.7634
 7046SOL    HW122579   0.064   6.474   3.908  2.4568 -0.7940 -0.2488
 7046SOL    HW222580   0.087   6.400   4.038  0.1377 -2.0901 -0.5203
 7047SOL     OW22581   1.893   6.414   4.960 -0.2129  0.4780 -0.2233
 7047SOL    HW122582   1.805   6.453   4.958  0.2822  1.6264 -0.3980
 7047SOL    HW222583   1.921   6.414   4.868  0.0547  0.3052 -0.1425
 7048SOL     OW22584   7.052   0.290  10.430 -0.2102 -0.6246 -0.3299
 7048SOL    HW122585   7.077   0.247  10.511  0.1761 -3.6983 -1.9363
 7048SOL    HW222586   7.135   0.308  10.385 -0.3528  1.9848  0.2755
 7049SOL     OW22587   7.483   5.056   7.093  0.0123 -0.2786 -0.2422
 7049SOL    HW122588   7.525   5.088   7.014 -0.8524  0.1800 -0.5273
 7049SOL    HW222589   7.432   4.980   7.065 -1.7641  0.9571 -0.5178
 7050SOL     OW22590   0.968   2.340   4.371  0.4386  0.3800 -0.1068
 7050SOL    HW122591   0.998   2.409   4.430  1.3056 -0.2479  0.2172
 7050SOL    HW222592   0.935   2.386   4.294  0.6723  1.1607  0.2546
 7051SOL     OW22593   1.445   7.387   9.160 -0.4262  0.5226 -0.0418
 7051SOL    HW122594   1.431   7.323   9.231 -2.2601 -0.8103 -1.4945
 7051SOL    HW222595   1.381   7.456   9.177 -2.6468 -1.0145 -1.6389
 7052SOL     OW22596   2.923   3.107   1.751 -0.1502  0.1082  0.0673
 7052SOL    HW122597   2.894   3.086   1.662  2.5807  1.5031 -1.2989
 7052SOL    HW222598   2.893   3.197   1.765  0.7610  0.4544 -0.1264
 7053SOL     OW22599   6.262   6.287   5.161 -0.1641  0.1940 -0.0900
 7053SOL    HW122600   6.188   6.345   5.147  0.0920  0.5514  0.0038
 7053SOL    HW222601   6.337   6.346   5.171  0.4189 -0.1874 -1.7962
 7054SOL     OW22602   2.970   6.975   1.593 -0.2169  0.5848  0.1696
 7054SOL    HW122603   3.050   7.013   1.629  0.5982  0.2959 -1.2863
 7054SOL    HW222604   2.989   6.881   1.588 -0.4775  0.5657 -0.5681
 7055SOL     OW22605   5.598   0.568   6.410  0.0063 -0.0935  0.0202
 7055SOL    HW122606   5.582   0.631   6.480  0.0794 -1.0282  0.9183
 7055SOL    HW222607   5.524   0.579   6.350 -1.1894 -0.6341  1.3051
 7056SOL     OW22608   1.349   7.124   9.757 -0.2161 -0.5699 -0.0921
 7056SOL    HW122609   1.393   7.207   9.776 -0.0783 -0.5529 -0.4728
 7056SOL    HW222610   1.257   7.142   9.773 -0.0258 -0.7874  1.3303
 7057SOL     OW22611   3.106   7.029   3.337 -0.5824 -0.1155 -0.1343
 7057SOL    HW122612   3.097   7.094   3.406  1.4796  1.8043 -1.5416
 7057SOL    HW222613   3.188   6.983   3.358  0.8113  1.4043 -1.8903
 7058SOL     OW22614   5.797   5.605   1.358  0.0869 -0.0047 -0.1029
 7058SOL    HW122615   5.845   5.532   1.320 -0.5066 -1.5157  1.8934
 7058SOL    HW222616   5.829   5.682   1.311  1.5937 -1.3864 -1.4609
 7059SOL     OW22617   6.846   2.837   9.517  0.0718 -0.3519 -0.3268
 7059SOL    HW122618   6.754   2.825   9.497 -0.1021  1.4772 -0.8396
 7059SOL    HW222619   6.865   2.927   9.489  1.4248  0.1153  1.8359
 7060SOL     OW22620   5.025   3.999   2.091  0.1256  0.5654 -0.0286
 7060SOL    HW122621   4.987   4.001   2.178 -1.1482  0.3800 -0.5569
 7060SOL    HW222622   5.071   3.915   2.087  1.0631  1.0222  0.7986
 7061SOL     OW22623   1.492   0.631   6.453 -0.3065  0.0603  0.0513
 7061SOL    HW122624   1.555   0.574   6.410  0.3573  0.0239  1.0304
 7061SOL    HW222625   1.492   0.710   6.401 -0.1766 -0.3101 -0.5184
 7062SOL     OW22626   3.561   1.494   6.874 -0.1225  0.0302  0.2849
 7062SOL    HW122627   3.585   1.423   6.814 -1.5794 -0.3763  0.1383
 7062SOL    HW222628   3.465   1.493   6.876 -0.2105  2.1594  0.0889
 7063SOL     OW22629   5.915   7.169   8.884  0.2192 -0.5173 -0.0910
 7063SOL    HW122630   5.843   7.232   8.880 -0.3474 -1.1800 -0.9654
 7063SOL    HW222631   5.976   7.197   8.815  0.3146 -0.5131 -0.0047
 7064SOL     OW22632   7.660   1.820   9.233  0.0506  0.4990  0.1654
 7064SOL    HW122633   7.640   1.757   9.302  0.2057  1.0678  0.7322
 7064SOL    HW222634   7.627   1.904   9.265  0.4603  0.8397 -0.2786
 7065SOL     OW22635   6.094   2.324   7.764  0.3604  0.2917 -0.2958
 7065SOL    HW122636   6.031   2.283   7.704  2.0539 -0.7773 -1.4240
 7065SOL    HW222637   6.074   2.285   7.850 -1.5979  1.2724 -0.2537
 7066SOL     OW22638   6.372   0.118   1.816  0.0587 -0.5843  0.2710
 7066SOL    HW122639   6.375   0.126   1.911  2.6640  3.5852  0.0784
 7066SOL    HW222640   6.299   0.175   1.790  0.4161 -0.3930 -0.3119
 7067SOL     OW22641   1.418   0.647   2.510 -0.0057 -0.2998 -0.3226
 7067SOL    HW122642   1.400   0.737   2.482 -0.7388 -0.6774 -1.1293
 7067SOL    HW222643   1.417   0.596   2.429  1.1170 -0.9392  0.0433
 7068SOL     OW22644   7.307   1.717   4.946 -0.1679 -0.2857  0.4851
 7068SOL    HW122645   7.285   1.674   4.864 -0.0645  1.4431 -0.5125
 7068SOL    HW222646   7.403   1.725   4.944 -0.2855  1.6417 -0.3124
 7069SOL     OW22647   2.370   5.938   0.406  0.1777 -0.5028  0.1619
 7069SOL    HW122648   2.305   5.995   0.445 -0.3257 -0.4046 -0.7940
 7069SOL    HW222649   2.435   5.924   0.475 -1.1066 -1.0167  1.3073
 7070SOL     OW22650   1.526   0.817   8.814  0.7252 -0.0324  0.2866
 7070SOL    HW122651   1.592   0.783   8.875  2.5931  0.7602 -1.1777
 7070SOL    HW222652   1.565   0.804   8.727 -1.3023  0.0050 -0.6866
 7071SOL     OW22653   0.024   7.463   3.071 -0.1030 -0.0849 -0.0855
 7071SOL    HW122654  -0.001   7.554   3.085  0.2594  0.1785 -1.1329
 7071SOL    HW222655  -0.023   7.437   2.992  1.0480 -0.3213 -0.7007
 7072SOL     OW22656   2.152   2.200   5.314 -0.0796  0.3269  0.7040
 7072SOL    HW122657   2.184   2.280   5.273  0.7776 -0.4470 -0.1795
 7072SOL    HW222658   2.121   2.228   5.400  2.1983  1.3081  1.2976
 7073SOL     OW22659   1.269   6.885   3.702  0.3007 -0.4333  0.3623
 7073SOL    HW122660   1.344   6.876   3.760  0.3717 -2.8757  0.0117
 7073SOL    HW222661   1.220   6.803   3.712 -1.5570  0.4999 -0.4765
 7074SOL     OW22662   3.975   1.585   6.895 -0.2091  0.0438 -0.1788
 7074SOL    HW122663   4.049   1.573   6.955 -0.0882  0.4843 -0.2385
 7074SOL    HW222664   3.903   1.613   6.952 -0.3160 -0.3231 -0.1297
 7075SOL     OW22665   2.161   6.729   8.999 -0.4660  0.2739 -0.5039
 7075SOL    HW122666   2.114   6.647   8.982 -0.7281  0.1989  0.5398
 7075SOL    HW222667   2.241   6.702   9.043 -0.3568  0.5513 -0.5295
 7076SOL     OW22668   6.789   5.673   2.552  0.5336  0.0594 -0.1586
 7076SOL    HW122669   6.747   5.651   2.469  1.1389 -0.3423 -0.3736
 7076SOL    HW222670   6.767   5.764   2.567 -0.3657 -0.1291 -0.2808
 7077SOL     OW22671   0.283   0.496   4.090 -0.4163  0.5371 -0.7485
 7077SOL    HW122672   0.220   0.425   4.081 -0.4880  0.4967  0.0260
 7077SOL    HW222673   0.364   0.453   4.116 -0.2750  0.6677 -0.9717
 7078SOL     OW22674   2.761   1.710   9.854 -0.6935 -0.5119  0.3981
 7078SOL    HW122675   2.819   1.691   9.927  0.6444 -0.5217 -0.6184
 7078SOL    HW222676   2.779   1.801   9.832 -0.8725 -0.5857 -0.0813
 7079SOL     OW22677   5.614   1.086   7.361 -0.2942  0.6316  0.0189
 7079SOL    HW122678   5.564   1.010   7.392 -0.6409  0.6106 -0.5897
 7079SOL    HW222679   5.667   1.051   7.289 -0.4994  0.9774 -0.3023
 7080SOL     OW22680   7.833   7.742   2.247 -0.3495  0.2941 -0.5689
 7080SOL    HW122681   7.912   7.720   2.296 -0.4975  0.8262 -0.0791
 7080SOL    HW222682   7.765   7.687   2.285 -0.2790  0.0536 -0.7882
 7081SOL     OW22683   1.824   1.799  10.208  0.0283 -0.0729 -0.0126
 7081SOL    HW122684   1.773   1.876  10.233 -0.7558 -0.4667 -0.3664
 7081SOL    HW222685   1.875   1.778  10.286  0.0298  0.6380  0.1786
 7082SOL     OW22686   4.045   7.285  12.184  0.1846 -0.4583  0.4498
 7082SOL    HW122687   3.975   7.343  12.213  0.9142 -0.1009  1.5592
 7082SOL    HW222688   4.014   7.250  12.101 -0.6355  0.8815  0.1573
 7083SOL     OW22689   4.551   1.455   2.702  0.2998  0.2505 -0.4507
 7083SOL    HW122690   4.629   1.473   2.754 -1.9070  1.7064  2.6556
 7083SOL    HW222691   4.529   1.539   2.661  0.1460 -0.0619 -1.0309
 7084SOL     OW22692   6.592   7.911   1.331  0.0622 -0.1218 -0.5540
 7084SOL    HW122693   6.564   7.819   1.332  0.4544 -0.2682  1.5720
 7084SOL    HW222694   6.686   7.908   1.343 -0.1586  0.5414  1.9349
 7085SOL     OW22695   2.164   5.489   8.957  0.0794 -0.8030 -0.3339
 7085SOL    HW122696   2.245   5.473   9.006  0.5384  1.0932 -0.3718
 7085SOL    HW222697   2.114   5.548   9.013  0.1550  0.5773 -1.6480
 7086SOL     OW22698   0.782   3.897   3.541 -0.1393  0.2276  0.7187
 7086SOL    HW122699   0.704   3.894   3.485  0.3106 -2.3615  0.1031
 7086SOL    HW222700   0.748   3.911   3.629 -0.9941  2.5417  0.0876
 7087SOL     OW22701   1.169   3.287   7.643 -0.6399 -0.1109 -0.4775
 7087SOL    HW122702   1.251   3.243   7.619 -1.8523 -2.5409 -0.4040
 7087SOL    HW222703   1.181   3.312   7.735  0.1607 -0.1038 -0.5788
 7088SOL     OW22704   2.496   6.398   8.125 -0.4140  0.0106  0.0060
 7088SOL    HW122705   2.563   6.464   8.105 -1.4744  0.7400 -1.3275
 7088SOL    HW222706   2.540   6.314   8.110  0.6487  0.4220  0.6983
 7089SOL     OW22707   4.232   2.674   4.893 -0.0854  0.6021  0.2422
 7089SOL    HW122708   4.318   2.641   4.868 -0.7771 -1.0655 -0.0265
 7089SOL    HW222709   4.248   2.766   4.917  2.0460 -0.1130  1.8471
 7090SOL     OW22710   5.674   4.071   7.558 -0.0794 -0.0917 -0.3824
 7090SOL    HW122711   5.707   3.999   7.611  0.3884  0.6776  0.3865
 7090SOL    HW222712   5.725   4.147   7.585 -0.8262  0.6210 -0.9053
 7091SOL     OW22713   6.735   2.026  12.076  0.4073  0.4787  0.4641
 7091SOL    HW122714   6.689   1.969  12.137 -0.5274  0.9742  0.2413
 7091SOL    HW222715   6.697   2.113  12.090  0.6343  0.7264 -0.3614
 7092SOL     OW22716   2.174   3.533   2.240 -0.2184 -0.1116 -0.5940
 7092SOL    HW122717   2.132   3.555   2.323  0.7709 -0.3188 -0.0284
 7092SOL    HW222718   2.137   3.596   2.177 -0.1630  0.7701  0.2322
 7093SOL     OW22719   6.780   0.950   4.513 -0.1507 -0.0737  0.3346
 7093SOL    HW122720   6.874   0.940   4.526 -0.0372  1.8343  1.3598
 7093SOL    HW222721   6.741   0.877   4.562  0.7816 -0.9669 -0.2252
 7094SOL     OW22722   2.232   5.449   8.376 -0.1302 -0.0370  0.5013
 7094SOL    HW122723   2.219   5.426   8.284  0.4918 -3.2464  1.0847
 7094SOL    HW222724   2.327   5.463   8.384 -0.3211  1.3324  0.4602
 7095SOL     OW22725   5.379   6.774   8.860 -0.3016  0.0039  0.0793
 7095SOL    HW122726   5.474   6.785   8.865 -0.4711  1.2405  2.0040
 7095SOL    HW222727   5.346   6.815   8.941 -2.5938  1.1577 -1.3128
 7096SOL     OW22728   4.887   1.127   7.533  0.0664 -0.1819 -0.6560
 7096SOL    HW122729   4.853   1.172   7.610 -1.1253 -2.5575  0.3185
 7096SOL    HW222730   4.977   1.158   7.524 -0.7026  2.4135 -0.1848
 7097SOL     OW22731   5.308   4.721   1.908 -0.4685  0.2457 -0.6389
 7097SOL    HW122732   5.239   4.721   1.842 -1.5002 -4.1311  0.1198
 7097SOL    HW222733   5.279   4.785   1.973 -2.3641  0.5429 -1.6900
 7098SOL     OW22734   3.685   2.862   7.621  0.0220  0.8779 -0.1611
 7098SOL    HW122735   3.664   2.783   7.670 -1.6683  1.3158 -0.1242
 7098SOL    HW222736   3.635   2.931   7.665  1.3457  1.9566 -0.2841
 7099SOL     OW22737   7.257   6.143   7.860  0.0546 -0.1248  0.0414
 7099SOL    HW122738   7.235   6.076   7.925  2.1650 -2.6252 -1.6102
 7099SOL    HW222739   7.344   6.172   7.885  0.4978 -0.4291 -1.0700
 7100SOL     OW22740   7.505   4.084  11.136 -0.2471 -0.5088  0.0130
 7100SOL    HW122741   7.471   4.074  11.047 -0.6622  1.0331 -0.0158
 7100SOL    HW222742   7.440   4.040  11.191 -1.6762  1.2709 -0.1685
 7101SOL     OW22743   4.992   3.901  11.116  0.4564 -0.3953  0.2120
 7101SOL    HW122744   4.902   3.870  11.127  0.0341  0.7133 -0.0594
 7101SOL    HW222745   5.006   3.901  11.021  0.3254  0.5428  0.1794
 7102SOL     OW22746   6.210   2.336   7.264  0.1086 -0.5930  0.1336
 7102SOL    HW122747   6.251   2.339   7.351 -0.1593 -0.2334  0.2490
 7102SOL    HW222748   6.121   2.306   7.281  0.5490 -2.1553 -0.2054
 7103SOL     OW22749   6.889   2.840   9.809 -0.1678 -0.4746  0.1185
 7103SOL    HW122750   6.882   2.874   9.720  0.4886  1.7894  0.8401
 7103SOL    HW222751   6.827   2.893   9.859 -3.0118 -3.8879  0.5729
 7104SOL     OW22752   0.712   3.685  11.936 -0.2265 -0.0092  0.5272
 7104SOL    HW122753   0.684   3.681  12.028  0.5451  0.4434  0.7846
 7104SOL    HW222754   0.797   3.728  11.938 -0.3940  0.3942 -0.4472
 7105SOL     OW22755   5.099   1.378   4.852  0.1334 -0.2612  0.2973
 7105SOL    HW122756   5.067   1.305   4.905 -1.4746 -0.4032 -0.8007
 7105SOL    HW222757   5.020   1.428   4.830  1.2087  2.0432  1.3005
 7106SOL     OW22758   4.807   2.322  10.652 -0.1401  0.2082 -0.8831
 7106SOL    HW122759   4.771   2.308  10.564  1.4325 -1.4484 -1.3214
 7106SOL    HW222760   4.889   2.273  10.652 -0.6017 -0.6865  1.8461
 7107SOL     OW22761   4.160   5.401   6.693 -0.0411 -0.3597  0.2850
 7107SOL    HW122762   4.122   5.472   6.745  1.0985  0.2169  0.3626
 7107SOL    HW222763   4.096   5.330   6.698 -1.3811  0.7922 -0.1014
 7108SOL     OW22764   2.193   7.163   4.941 -0.0269  0.1315  0.0907
 7108SOL    HW122765   2.168   7.210   4.862 -3.8546  0.8766  1.5077
 7108SOL    HW222766   2.144   7.081   4.937  1.0788 -0.6057  0.9168
 7109SOL     OW22767   5.542   7.635  10.723  0.7755 -0.0381  0.7392
 7109SOL    HW122768   5.508   7.624  10.634  0.8904 -0.2615  0.7227
 7109SOL    HW222769   5.542   7.730  10.738 -1.0210 -0.0616  1.1769
 7110SOL     OW22770   7.012   1.485   8.251  0.3266  0.1815  0.0738
 7110SOL    HW122771   6.993   1.562   8.305 -0.6159  1.9858 -2.6161
 7110SOL    HW222772   6.934   1.475   8.196  1.1658 -1.6479 -0.8463
 7111SOL     OW22773   2.831   5.516  12.087 -0.0237  0.0661 -0.5158
 7111SOL    HW122774   2.858   5.432  12.125  1.6937  0.9735  0.3976
 7111SOL    HW222775   2.774   5.555  12.153 -0.7758 -0.3464 -0.9151
 7112SOL     OW22776   6.813   6.876   8.955  0.2528  0.1385 -0.5679
 7112SOL    HW122777   6.728   6.881   8.999  0.0641 -1.1220 -0.7637
 7112SOL    HW222778   6.841   6.785   8.966  1.9893  0.7179  0.2242
 7113SOL     OW22779   6.305   0.474   9.787  0.0308 -0.1028 -0.3855
 7113SOL    HW122780   6.357   0.414   9.841 -0.0141  2.1522  2.3670
 7113SOL    HW222781   6.371   0.524   9.738  0.0782 -1.9374 -2.3744
 7114SOL     OW22782   6.111   4.878   7.363  0.0882 -0.3261 -0.4280
 7114SOL    HW122783   6.124   4.784   7.373 -1.5714 -0.7483 -1.7161
 7114SOL    HW222784   6.185   4.908   7.311  1.8141 -0.4574  1.8174
 7115SOL     OW22785   1.931   0.984  11.027  0.2697 -0.0599 -0.1477
 7115SOL    HW122786   2.020   0.949  11.032 -0.4701 -2.1973 -0.9302
 7115SOL    HW222787   1.912   1.015  11.115  1.1340 -1.2811  0.4944
 7116SOL     OW22788   1.104   3.731   4.968  0.1064  0.3665 -0.0734
 7116SOL    HW122789   1.172   3.666   4.987  0.2049  0.6752  0.6437
 7116SOL    HW222790   1.095   3.781   5.049  2.2900  3.3201 -1.4342
 7117SOL     OW22791   0.423   2.660   8.241  0.8160  0.1601 -0.2199
 7117SOL    HW122792   0.442   2.587   8.181  0.3095  0.4803 -0.7765
 7117SOL    HW222793   0.329   2.656   8.256  0.5230  1.5575 -1.4180
 7118SOL     OW22794   2.770   2.287   6.895 -0.6672  0.0286  0.5544
 7118SOL    HW122795   2.698   2.266   6.836 -0.3438  1.6226 -0.4422
 7118SOL    HW222796   2.812   2.364   6.857  2.9775 -2.0683 -0.1481
 7119SOL     OW22797   3.170   4.320  11.212  0.1300 -0.0970  0.2558
 7119SOL    HW122798   3.211   4.237  11.186  0.1550  0.4635 -1.6620
 7119SOL    HW222799   3.202   4.384  11.148 -1.2223  1.0408  0.6551
 7120SOL     OW22800   6.294   6.350   9.638 -0.0757  0.3592  0.1915
 7120SOL    HW122801   6.262   6.261   9.626  0.0436  0.4773 -1.1247
 7120SOL    HW222802   6.279   6.393   9.554  1.4568  1.0733  0.2456
 7121SOL     OW22803   1.732   4.062   4.883  0.1106  0.0701  0.3682
 7121SOL    HW122804   1.693   4.124   4.945  0.1073  1.3479 -0.8600
 7121SOL    HW222805   1.807   4.025   4.929  0.7442  1.7910  0.7645
 7122SOL     OW22806   0.017   5.085   9.162 -0.0006 -0.4053  0.0813
 7122SOL    HW122807   0.023   5.025   9.236  1.2669 -0.1974  0.1738
 7122SOL    HW222808   0.072   5.046   9.094 -0.2763 -0.0467 -0.3586
 7123SOL     OW22809   5.323   1.278   9.932  0.7006  0.8951 -0.0042
 7123SOL    HW122810   5.351   1.338  10.000  2.4637  1.0522 -0.8218
 7123SOL    HW222811   5.394   1.279   9.868 -0.1882 -0.4459 -1.0681
 7124SOL     OW22812   7.213   0.585   3.701  0.2242 -0.1877  0.9380
 7124SOL    HW122813   7.253   0.555   3.782 -1.6074  0.8401  2.3117
 7124SOL    HW222814   7.176   0.671   3.722 -0.6386 -0.0485 -0.8714
 7125SOL     OW22815   2.602   3.818   3.411 -0.0361  0.2985 -0.3081
 7125SOL    HW122816   2.675   3.879   3.424  0.2448 -0.1448  0.2276
 7125SOL    HW222817   2.598   3.806   3.316 -0.2283  1.3062 -0.4307
 7126SOL     OW22818   5.986   0.120  11.700 -0.4101 -0.2128  0.1589
 7126SOL    HW122819   5.976   0.112  11.605  1.3860  0.8249 -0.1660
 7126SOL    HW222820   5.935   0.198  11.724 -2.9122 -1.8401  0.5006
 7127SOL     OW22821   1.669   4.043   3.423 -0.1720  0.1438  0.3141
 7127SOL    HW122822   1.649   4.136   3.436 -1.8955 -0.1729  0.2669
 7127SOL    HW222823   1.751   4.029   3.469  0.6190  1.8954 -0.4765
 7128SOL     OW22824   5.829   6.981   9.223  0.6456 -0.2543 -0.1762
 7128SOL    HW122825   5.850   6.895   9.186  0.6222 -0.5205  0.4264
 7128SOL    HW222826   5.906   7.005   9.275  0.9396  0.4071 -0.8967
 7129SOL     OW22827   1.584   6.504  10.165 -0.0489 -0.3597 -0.1702
 7129SOL    HW122828   1.516   6.498  10.233 -0.9529  1.5951 -0.8328
 7129SOL    HW222829   1.555   6.575  10.108  1.8298 -0.4581 -1.3350
 7130SOL     OW22830   7.015   7.099   5.966  0.2226  0.4523 -0.0154
 7130SOL    HW122831   6.923   7.110   5.944 -0.0742 -1.3250  0.1266
 7130SOL    HW222832   7.051   7.187   5.968 -1.3029  1.1207 -0.8027
 7131SOL     OW22833   3.907   6.516   2.354  0.1171 -1.0968 -0.6249
 7131SOL    HW122834   3.867   6.502   2.268 -1.0336 -0.1142 -0.2779
 7131SOL    HW222835   3.990   6.558   2.334  0.1524 -1.4535 -1.2830
 7132SOL     OW22836   4.391   3.652   2.375 -0.3660 -0.3136 -0.4151
 7132SOL    HW122837   4.311   3.617   2.337 -0.9976 -1.0944  1.5254
 7132SOL    HW222838   4.362   3.717   2.439  0.5932 -0.1537 -0.1162
 7133SOL     OW22839   3.561   1.455   6.104  0.2533  0.2979  0.0761
 7133SOL    HW122840   3.562   1.388   6.172 -0.9221  0.1609 -0.0185
 7133SOL    HW222841   3.546   1.537   6.151 -2.9171 -0.0306 -0.1001
 7134SOL     OW22842   2.990   4.701   4.054 -0.6230  0.3974  0.3003
 7134SOL    HW122843   3.070   4.661   4.090  0.6916  1.5284 -1.2123
 7134SOL    HW222844   2.920   4.640   4.077  0.9940 -1.7561 -0.2088
 7135SOL     OW22845   7.801   0.670   9.450  0.1694  0.1828  0.2600
 7135SOL    HW122846   7.722   0.724   9.460 -0.7153 -0.5653 -2.0064
 7135SOL    HW222847   7.836   0.662   9.539 -3.0539 -0.5822  1.5948
 7136SOL     OW22848   2.689   5.360   5.194 -0.3829  0.2779 -0.0406
 7136SOL    HW122849   2.607   5.383   5.151 -0.3166 -0.0996 -0.3691
 7136SOL    HW222850   2.720   5.283   5.148 -1.0674 -1.0566  1.6294
 7137SOL     OW22851   6.180   5.347   5.256 -0.7306  0.1554 -0.6059
 7137SOL    HW122852   6.111   5.340   5.190 -1.1121  0.6595 -0.2672
 7137SOL    HW222853   6.261   5.329   5.208 -1.1750 -1.6234 -0.7847
 7138SOL     OW22854   1.240   3.574   0.406  0.6589  0.3175  0.3166
 7138SOL    HW122855   1.306   3.635   0.373  1.4177  0.0063  1.2175
 7138SOL    HW222856   1.222   3.516   0.332  0.8849  0.8345 -0.1480
 7139SOL     OW22857   5.021   4.803   0.098 -0.2406  0.3945 -0.3576
 7139SOL    HW122858   5.008   4.799   0.003  1.5041  1.4847 -0.6964
 7139SOL    HW222859   5.005   4.895   0.120  1.1392  0.5578  0.0657
 7140SOL     OW22860   2.772   7.610   3.757  0.6303 -0.0088  0.1188
 7140SOL    HW122861   2.754   7.674   3.825 -0.4649 -1.8371  1.6623
 7140SOL    HW222862   2.700   7.547   3.764  1.5325 -1.2882 -1.4495
 7141SOL     OW22863   2.564   5.960  10.605 -0.3526 -0.0206 -0.3892
 7141SOL    HW122864   2.510   5.901  10.658  0.0438  0.6696  0.8098
 7141SOL    HW222865   2.547   5.932  10.515 -1.2928 -1.0106  0.0627
 7142SOL     OW22866   5.381   7.343   7.923 -0.1149 -0.1950  0.0968
 7142SOL    HW122867   5.467   7.312   7.894 -0.8906 -2.4451  0.0138
 7142SOL    HW222868   5.347   7.393   7.849  0.0832 -1.4995 -0.9243
 7143SOL     OW22869   7.419   0.336   8.778  0.4769 -0.2112 -0.2755
 7143SOL    HW122870   7.386   0.423   8.760  0.8415  0.3605  1.6406
 7143SOL    HW222871   7.506   0.334   8.736 -0.0084 -0.0897 -1.3106
 7144SOL     OW22872   4.099   0.076   8.557 -0.1050  0.1031 -0.7638
 7144SOL    HW122873   4.069   0.034   8.637 -0.6570 -2.4516 -2.2178
 7144SOL    HW222874   4.041   0.153   8.548 -1.2333 -0.5718  0.3457
 7145SOL     OW22875   4.063   1.110   1.332 -0.0620  0.0537 -0.3170
 7145SOL    HW122876   4.008   1.184   1.307  2.4981  1.8233 -1.1477
 7145SOL    HW222877   4.051   1.047   1.261 -2.5075 -0.5675  0.5523
 7146SOL     OW22878   5.573   1.168   5.973  0.2449  0.2416 -0.6398
 7146SOL    HW122879   5.594   1.243   6.029  2.6272 -0.0989 -0.9839
 7146SOL    HW222880   5.577   1.093   6.032  1.9290 -0.0237 -1.0435
 7147SOL     OW22881   4.529   2.640   4.923 -0.1202  0.0425 -0.5776
 7147SOL    HW122882   4.500   2.718   4.970 -0.9174  0.2890 -1.4551
 7147SOL    HW222883   4.600   2.605   4.977 -0.0204  1.1417  0.0404
 7148SOL     OW22884   6.362   7.494   4.829 -0.0117 -0.6709  0.0390
 7148SOL    HW122885   6.417   7.426   4.869  0.3083 -0.3301  0.1894
 7148SOL    HW222886   6.360   7.564   4.894  0.8134  0.0444 -0.6758
 7149SOL     OW22887   4.764   2.238   3.191 -0.4101 -0.2666 -0.0764
 7149SOL    HW122888   4.711   2.303   3.144  1.0526  0.2163 -1.1280
 7149SOL    HW222889   4.741   2.155   3.150  0.6589  0.1214 -1.5455
 7150SOL     OW22890   4.995   6.510   0.237  0.0493 -0.1392 -0.1828
 7150SOL    HW122891   4.953   6.466   0.163  0.0092 -0.0079 -0.2377
 7150SOL    HW222892   5.055   6.444   0.273  1.4009  0.3702 -1.4256
 7151SOL     OW22893   1.429   1.260   6.883 -0.3267  0.3894 -0.1545
 7151SOL    HW122894   1.342   1.255   6.845 -0.9421 -0.3130  1.2891
 7151SOL    HW222895   1.452   1.169   6.903  0.2115  0.6829  0.6015
 7152SOL     OW22896   4.636   1.743  12.016  0.5287 -0.2225 -0.5406
 7152SOL    HW122897   4.602   1.822  12.060  2.0914  0.6995 -0.9320
 7152SOL    HW222898   4.623   1.760  11.923 -1.0434 -1.3703 -0.5775
 7153SOL     OW22899   0.355   1.283  12.223  0.4456  0.3814 -0.2490
 7153SOL    HW122900   0.284   1.283  12.159 -0.3686  1.6621  0.5882
 7153SOL    HW222901   0.351   1.371  12.262  1.3604 -0.1300  1.0553
 7154SOL     OW22902   1.835   0.344   3.786  0.2772 -0.7069  0.3357
 7154SOL    HW122903   1.750   0.380   3.812 -0.7472 -2.8610  0.1531
 7154SOL    HW222904   1.885   0.421   3.758 -2.0407  0.5034 -0.8383
 7155SOL     OW22905   1.463   0.764  10.747  0.8990 -0.8637 -0.4712
 7155SOL    HW122906   1.409   0.700  10.794  0.6471 -1.5016 -1.5911
 7155SOL    HW222907   1.431   0.849  10.778 -0.0525 -1.2502 -0.3631
 7156SOL     OW22908   5.580   5.955   5.585  0.0808  0.4313 -0.4653
 7156SOL    HW122909   5.632   5.949   5.505 -0.4581  0.3929 -0.8162
 7156SOL    HW222910   5.525   6.032   5.572 -0.5097  0.0175 -0.4271
 7157SOL     OW22911   4.484   7.199   1.191  0.7506  0.3969  0.1338
 7157SOL    HW122912   4.457   7.110   1.214  1.7330  0.4643  1.7051
 7157SOL    HW222913   4.435   7.219   1.111  0.3835 -1.4876 -0.1710
 7158SOL     OW22914   3.797   4.108  12.209  0.1811 -0.1817 -0.5715
 7158SOL    HW122915   3.764   4.146  12.128 -2.4946 -0.7113  0.1674
 7158SOL    HW222916   3.725   4.053  12.241  2.1390 -2.1697  0.7861
 7159SOL     OW22917   2.607   7.594   3.341  0.2893 -0.2339  0.8551
 7159SOL    HW122918   2.559   7.559   3.416  0.1156 -0.2849  0.7201
 7159SOL    HW222919   2.654   7.518   3.305 -1.1875 -0.6366 -0.2818
 7160SOL     OW22920   4.441   2.392   0.330 -0.1448 -0.1727 -0.6171
 7160SOL    HW122921   4.445   2.472   0.276 -0.0317 -0.7786 -1.5227
 7160SOL    HW222922   4.362   2.347   0.300  0.0822 -0.6643 -0.4839
 7161SOL     OW22923   3.203   0.254   1.880 -0.2307  0.7999  0.6019
 7161SOL    HW122924   3.215   0.320   1.811 -1.3377 -0.2785 -0.6707
 7161SOL    HW222925   3.202   0.305   1.962  2.9217  1.9449  0.0604
 7162SOL     OW22926   7.393   5.534   2.191  0.3800 -0.5286  0.4197
 7162SOL    HW122927   7.465   5.561   2.247  0.8690 -1.7487  0.4258
 7162SOL    HW222928   7.354   5.615   2.160  0.6359  0.1638  1.8362
 7163SOL     OW22929   0.022   2.898   3.455  0.3880  0.0352  0.3279
 7163SOL    HW122930  -0.012   2.865   3.372 -1.4820  2.2267  0.1294
 7163SOL    HW222931  -0.031   2.854   3.521  1.7757 -1.5925  0.4509
 7164SOL     OW22932   5.319   2.042   5.721  0.5126 -1.1766  0.0560
 7164SOL    HW122933   5.272   2.090   5.789  1.7010  1.3886 -0.7786
 7164SOL    HW222934   5.251   2.001   5.668 -0.4837 -1.9858  1.8941
 7165SOL     OW22935   0.294   1.167   4.073  0.4373 -0.1565  0.7943
 7165SOL    HW122936   0.330   1.122   3.997 -1.1960  1.1288 -0.8439
 7165SOL    HW222937   0.228   1.106   4.107  1.2138 -0.7620  1.2511
 7166SOL     OW22938   0.373   4.592   8.510  0.1508  0.0244  0.2732
 7166SOL    HW122939   0.351   4.504   8.478 -0.6304  0.1168  0.5344
 7166SOL    HW222940   0.289   4.632   8.531  0.5849  0.1906  1.8433
 7167SOL     OW22941   0.001   6.327   1.642 -0.4407 -0.3581  0.5554
 7167SOL    HW122942  -0.077   6.380   1.629 -0.4802 -0.5060  0.1829
 7167SOL    HW222943  -0.022   6.240   1.609 -0.0296 -0.3324  0.1920
 7168SOL     OW22944   6.503   4.536   7.900  0.6832 -0.1681  0.1823
 7168SOL    HW122945   6.504   4.452   7.855  0.2358 -1.5089  2.5066
 7168SOL    HW222946   6.595   4.562   7.905  1.1668 -2.0128  1.9560
 7169SOL     OW22947   4.272   6.650   8.596 -0.4561  0.2714 -0.1141
 7169SOL    HW122948   4.223   6.611   8.669  0.8227 -0.8204  0.2025
 7169SOL    HW222949   4.350   6.688   8.637 -0.3816  0.8297 -0.7606
 7170SOL     OW22950   7.402   5.100   5.973 -0.6295  0.0057  0.6275
 7170SOL    HW122951   7.405   5.004   5.980 -1.6776  0.0515  2.2472
 7170SOL    HW222952   7.494   5.126   5.962 -0.1936 -1.1160  1.3954
 7171SOL     OW22953   6.222   2.983   5.110 -0.5209  0.6418  0.0441
 7171SOL    HW122954   6.222   2.905   5.167 -1.4057  1.9867  2.0113
 7171SOL    HW222955   6.131   2.992   5.082 -0.4247  0.9658 -0.1674
 7172SOL     OW22956   1.658   1.817   6.098  0.7921  0.6327  0.5604
 7172SOL    HW122957   1.633   1.805   6.190  1.4294  0.8954  0.7714
 7172SOL    HW222958   1.695   1.733   6.072 -3.0178 -0.8973 -0.6870
 7173SOL     OW22959   2.644   6.901  12.357 -0.8699  0.1421  0.3437
 7173SOL    HW122960   2.577   6.947  12.406  0.0954  2.3206 -0.2444
 7173SOL    HW222961   2.722   6.957  12.364  0.3966 -1.4358 -0.3967
 7174SOL     OW22962   0.411   5.225   7.106 -0.0349  0.0697 -0.2620
 7174SOL    HW122963   0.351   5.300   7.104  0.7027  0.7177  0.6029
 7174SOL    HW222964   0.471   5.246   7.178  1.1757 -0.5860 -1.0630
 7175SOL     OW22965   6.810   5.407   4.562 -0.3578 -0.5231  0.2528
 7175SOL    HW122966   6.752   5.450   4.499 -1.0587 -2.1287 -0.2439
 7175SOL    HW222967   6.898   5.424   4.529 -0.7020 -1.1004 -1.0235
 7176SOL     OW22968   3.696   1.369   2.032 -0.8296  0.3329  0.8084
 7176SOL    HW122969   3.617   1.360   2.084 -0.0067 -2.0226  1.7803
 7176SOL    HW222970   3.765   1.330   2.086  0.3579 -0.7649 -1.3745
 7177SOL     OW22971   5.189   5.105   1.777 -0.4145  0.0072 -0.4441
 7177SOL    HW122972   5.142   5.022   1.771 -1.2971  0.4036  0.6306
 7177SOL    HW222973   5.268   5.084   1.827 -0.9691 -0.0748  0.4279
 7178SOL     OW22974   1.051   6.942   3.347  0.7426  0.2393  0.2728
 7178SOL    HW122975   0.966   6.922   3.387  0.3460 -0.0149 -0.6850
 7178SOL    HW222976   1.073   7.029   3.379 -0.5303  0.8875 -0.5439
 7179SOL     OW22977   6.822   7.358   5.480 -0.3103 -0.3786  0.0001
 7179SOL    HW122978   6.851   7.361   5.571 -1.8490 -1.3020  0.5704
 7179SOL    HW222979   6.864   7.433   5.438 -1.7742  1.8184  2.1558
 7180SOL     OW22980   0.772   1.773   8.274  0.5087  0.0687 -0.1470
 7180SOL    HW122981   0.806   1.863   8.279 -0.0328  0.2166  1.4938
 7180SOL    HW222982   0.684   1.779   8.311  1.4374 -1.5588  2.6407
 7181SOL     OW22983   3.558   5.632   7.632  0.2873 -0.1888  0.4429
 7181SOL    HW122984   3.518   5.550   7.600  0.5004 -0.5351  1.0504
 7181SOL    HW222985   3.531   5.698   7.568  2.3037 -1.2133 -1.5764
 7182SOL     OW22986   5.451   6.774   1.400 -0.3648  0.4646  0.0963
 7182SOL    HW122987   5.394   6.808   1.331 -1.8916 -1.6049  0.2523
 7182SOL    HW222988   5.424   6.820   1.479 -1.0683  0.3070 -0.0431
 7183SOL     OW22989   0.922   0.735   8.768  0.5518  0.2390 -0.1450
 7183SOL    HW122990   0.929   0.666   8.833  1.7137 -1.1353 -1.6370
 7183SOL    HW222991   0.852   0.707   8.710  0.6109  0.6258 -0.4096
 7184SOL     OW22992   7.055   1.280   1.303  0.1812 -0.1620  0.6941
 7184SOL    HW122993   7.000   1.309   1.231 -0.9198  0.6345  1.8086
 7184SOL    HW222994   7.016   1.320   1.381  1.4677 -0.7905  1.7114
 7185SOL     OW22995   0.848   3.070   9.155  0.1545  0.1389 -0.4371
 7185SOL    HW122996   0.891   3.088   9.238  1.1264  0.3098 -0.9679
 7185SOL    HW222997   0.913   3.093   9.088 -0.3274 -0.7236 -1.2311
 7186SOL     OW22998   7.465   4.000  10.872 -0.1118 -0.8557  0.1768
 7186SOL    HW122999   7.556   4.030  10.878 -0.3708  0.4230 -1.5211
 7186SOL    HW223000   7.471   3.913  10.834  0.3860 -0.1554 -1.4636
 7187SOL     OW23001   6.868   4.776   5.591 -0.5855 -0.0785  0.3930
 7187SOL    HW123002   6.906   4.845   5.537 -1.4876 -0.1566 -0.3635
 7187SOL    HW223003   6.878   4.808   5.681  0.8401  0.0935  0.2010
 7188SOL     OW23004   1.787   2.611   7.340 -0.0695  0.0622  0.1818
 7188SOL    HW123005   1.694   2.590   7.351 -0.0961 -0.2649 -0.6132
 7188SOL    HW223006   1.794   2.703   7.367 -1.3532  1.3123 -3.2102
 7189SOL     OW23007   2.719   0.942   2.630 -0.0092  0.0096  0.3675
 7189SOL    HW123008   2.776   1.010   2.665  0.3878 -0.7970  1.3286
 7189SOL    HW223009   2.673   0.985   2.557  1.1350  0.9331  0.1601
 7190SOL     OW23010   2.848   7.165  11.498 -0.0986 -0.1650 -0.1418
 7190SOL    HW123011   2.807   7.149  11.413  1.2880  1.3004 -1.1514
 7190SOL    HW223012   2.895   7.084  11.518 -0.2008 -0.4209 -0.9115
 7191SOL     OW23013   1.022   5.830   6.528 -0.4660 -0.3443  0.9906
 7191SOL    HW123014   0.968   5.893   6.482 -0.4110 -1.4038 -0.5938
 7191SOL    HW223015   0.986   5.827   6.617 -0.6843  1.6044  1.0007
 7192SOL     OW23016   3.203   6.768   9.504  0.5009 -0.2413 -0.7677
 7192SOL    HW123017   3.132   6.705   9.490  1.3857 -1.4054 -0.1783
 7192SOL    HW223018   3.178   6.815   9.583 -0.5260  0.7004 -1.6150
 7193SOL     OW23019   6.233   1.181   8.073  0.0550 -0.1903  0.5751
 7193SOL    HW123020   6.308   1.183   8.013  1.8374 -0.4051  2.6254
 7193SOL    HW223021   6.164   1.229   8.028  1.4065 -0.0344 -1.4553
 7194SOL     OW23022   7.230   6.198   8.384  0.0716 -0.4585  0.5144
 7194SOL    HW123023   7.207   6.107   8.365 -1.3850 -0.2893  1.3068
 7194SOL    HW223024   7.216   6.207   8.478  0.2962  0.5656  0.4616
 7195SOL     OW23025   7.190   5.351   3.954 -0.1138  0.1809  0.4406
 7195SOL    HW123026   7.129   5.291   3.997 -0.4272  0.0891 -0.1190
 7195SOL    HW223027   7.202   5.314   3.866  0.9445  0.0660  0.6250
 7196SOL     OW23028   5.956   6.901   8.774 -0.3779  0.2379  0.0467
 7196SOL    HW123029   5.883   6.927   8.829  0.0127  0.3173  0.5341
 7196SOL    HW223030   6.019   6.972   8.783  0.1641 -0.2785  0.3833
 7197SOL     OW23031   1.416   0.754   1.041 -0.1412  0.2803 -0.1153
 7197SOL    HW123032   1.427   0.707   0.958 -1.6137 -0.9886  0.3660
 7197SOL    HW223033   1.326   0.737   1.067  0.2538  0.7231  1.7085
 7198SOL     OW23034   1.459   6.205   0.916  0.5852  0.3304 -0.2177
 7198SOL    HW123035   1.415   6.132   0.874  0.5219  1.1433 -1.6342
 7198SOL    HW223036   1.431   6.200   1.007  0.9626 -1.6643 -0.1723
 7199SOL     OW23037   3.361   3.886   4.620 -0.3167  0.2863  0.4373
 7199SOL    HW123038   3.380   3.859   4.530  3.1667  0.4296  0.9606
 7199SOL    HW223039   3.417   3.963   4.634 -0.1164 -0.2286  2.9418
 7200SOL     OW23040   3.942   1.450   4.063 -0.0267  0.0748 -0.4216
 7200SOL    HW123041   4.000   1.380   4.091 -1.3012 -0.1602  1.8963
 7200SOL    HW223042   3.875   1.406   4.010 -0.1434 -0.2760  0.0105
 7201SOL     OW23043   7.860   1.268   9.506 -0.0262 -0.1711 -0.3555
 7201SOL    HW123044   7.859   1.216   9.426  3.4020  0.5367 -1.0027
 7201SOL    HW223045   7.836   1.206   9.575 -0.3349 -1.4744 -1.5745
 7202SOL     OW23046   0.952   4.618   6.326  0.1115  1.0454 -0.4233
 7202SOL    HW123047   0.864   4.586   6.349  0.9379 -0.7154  0.5161
 7202SOL    HW223048   0.985   4.657   6.406  0.4074  1.2111 -0.6256
 7203SOL     OW23049   4.506   3.065   6.595 -0.0276  0.2279 -0.3534
 7203SOL    HW123050   4.436   3.062   6.530 -0.4187  1.4801 -0.0057
 7203SOL    HW223051   4.483   2.996   6.658 -0.3904 -0.0580 -0.7950
 7204SOL     OW23052   2.924   3.847   0.848 -0.3707  0.2183 -0.1976
 7204SOL    HW123053   2.843   3.839   0.899 -0.3840  1.8797  0.0814
 7204SOL    HW223054   2.913   3.786   0.776 -0.9140 -1.2375  1.0486
 7205SOL     OW23055   1.880   7.402   5.759 -0.4324 -0.7286 -0.2214
 7205SOL    HW123056   1.822   7.470   5.724  2.1615  1.2142 -1.0153
 7205SOL    HW223057   1.852   7.392   5.850 -0.9148  1.4219 -0.0855
 7206SOL     OW23058   2.105   6.564   5.770 -0.7892  0.0898  0.5830
 7206SOL    HW123059   2.031   6.597   5.719  1.2480  1.2423 -1.8987
 7206SOL    HW223060   2.086   6.590   5.860 -1.6913  3.8707 -0.4975
 7207SOL     OW23061   4.843   0.085  12.033 -0.2874  0.0319 -0.3298
 7207SOL    HW123062   4.866   0.171  11.998  1.6528  0.4309  1.7171
 7207SOL    HW223063   4.917   0.060  12.088 -1.2534 -2.5090 -0.0283
 7208SOL     OW23064   1.944   0.070   8.858 -0.4608  0.5687  0.4712
 7208SOL    HW123065   1.966  -0.021   8.879 -1.7291  0.2493  0.5018
 7208SOL    HW223066   2.028   0.113   8.846  0.1648 -0.5445  0.7493
 7209SOL     OW23067   6.213   5.786   1.145 -0.1495  0.5087 -0.3425
 7209SOL    HW123068   6.235   5.744   1.228  0.0260  0.4559 -0.4143
 7209SOL    HW223069   6.295   5.785   1.095 -0.1795  0.8143 -0.3981
 7210SOL     OW23070   0.505   4.822   0.045 -0.0665 -0.2707  0.5484
 7210SOL    HW123071   0.488   4.780  -0.039  0.7025 -1.9677  1.1924
 7210SOL    HW223072   0.499   4.916   0.027  0.8892 -0.5632 -1.5780
 7211SOL     OW23073   3.509   2.044   3.516  0.2356  0.0960  0.1358
 7211SOL    HW123074   3.427   1.995   3.505  1.4339 -2.2821  1.0752
 7211SOL    HW223075   3.529   2.076   3.428 -1.4406  0.3589 -0.1950
 7212SOL     OW23076   3.793   7.403  11.275  0.3859  0.3805  0.5294
 7212SOL    HW123077   3.789   7.327  11.217  1.3496  0.3306  0.5185
 7212SOL    HW223078   3.822   7.368  11.359 -0.0965  0.5986  0.7913
 7213SOL     OW23079   3.917   0.015   0.706 -0.2546  0.0917 -0.1949
 7213SOL    HW123080   3.997   0.032   0.755 -0.7373 -1.0542  1.0738
 7213SOL    HW223081   3.927   0.063   0.624  1.8682 -0.2886 -0.2085
 7214SOL     OW23082   0.710   0.563  12.061 -0.6379  0.4671  0.6542
 7214SOL    HW123083   0.634   0.592  12.011  0.5936  2.0417 -0.4270
 7214SOL    HW223084   0.724   0.472  12.033 -1.1545  0.6890 -0.3906
 7215SOL     OW23085   0.233   0.720   9.513  0.2323 -0.8445  0.6478
 7215SOL    HW123086   0.274   0.768   9.585  1.8868  0.2950 -0.9853
 7215SOL    HW223087   0.205   0.637   9.553 -0.1481  0.2879  2.8881
 7216SOL     OW23088   7.006   4.659   1.037 -0.2206 -0.0112  0.1034
 7216SOL    HW123089   7.023   4.590   0.973  0.1208  0.0357  0.1410
 7216SOL    HW223090   6.964   4.729   0.987  0.0716  0.0377 -0.0788
 7217SOL     OW23091   4.731   1.670   1.034 -0.7025 -0.4539 -0.1186
 7217SOL    HW123092   4.720   1.757   0.994  2.0265 -0.2422 -0.6261
 7217SOL    HW223093   4.698   1.609   0.968 -0.0523  0.1073 -0.9998
 7218SOL     OW23094   7.827   0.967   2.269  0.2492  0.0480 -0.3195
 7218SOL    HW123095   7.855   0.988   2.358 -0.3862  0.4795 -0.2133
 7218SOL    HW223096   7.880   0.891   2.244  0.0561 -0.4054  0.6235
 7219SOL     OW23097   6.944   2.423  11.148 -0.0728 -0.2546  0.3100
 7219SOL    HW123098   6.935   2.406  11.055  0.8423  1.1911 -0.0759
 7219SOL    HW223099   6.883   2.494  11.166  1.8533  1.5522  0.1195
 7220SOL     OW23100   4.958   2.579  10.822 -0.1172 -0.0179 -0.1202
 7220SOL    HW123101   5.016   2.544  10.890  0.9377  2.1808  0.1979
 7220SOL    HW223102   4.921   2.501  10.780  0.6832 -1.4603  1.6864
 7221SOL     OW23103   2.849   7.580   5.263  0.5474 -0.0557 -0.4280
 7221SOL    HW123104   2.763   7.545   5.237  0.2014  1.4980 -1.5347
 7221SOL    HW223105   2.851   7.571   5.358  0.4791 -2.9551 -0.6069
 7222SOL     OW23106   4.448   2.624  12.015  0.0485 -0.3250  0.6514
 7222SOL    HW123107   4.436   2.689  12.084 -1.6372  0.6753 -0.5332
 7222SOL    HW223108   4.412   2.543  12.051  0.6438 -0.2231  1.5067
 7223SOL     OW23109   1.182   6.959   2.581  0.5900 -0.6096 -0.1600
 7223SOL    HW123110   1.100   7.002   2.606 -0.0004 -0.7813 -1.6824
 7223SOL    HW223111   1.241   7.032   2.558  0.3269 -0.5322 -0.6010
 7224SOL     OW23112   7.238   4.015   1.989  0.4541 -0.2955  0.1894
 7224SOL    HW123113   7.216   4.080   2.055  2.6933  0.2297  0.4914
 7224SOL    HW223114   7.334   4.017   1.983  0.4286 -1.5506 -1.8383
 7225SOL     OW23115   6.047   6.262   2.652 -0.0913  0.6962 -0.1163
 7225SOL    HW123116   6.057   6.178   2.608 -0.0708  0.4484  0.3587
 7225SOL    HW223117   6.030   6.324   2.581 -1.2244  0.1082 -0.3879
 7226SOL     OW23118   6.868   7.747  11.909 -0.1538  0.2955 -0.1661
 7226SOL    HW123119   6.787   7.767  11.955  0.6361  0.0149  1.4166
 7226SOL    HW223120   6.936   7.757  11.975  1.1060  0.4088 -1.4215
 7227SOL     OW23121   1.617   7.590   3.427 -0.2777 -0.4502 -0.2431
 7227SOL    HW123122   1.552   7.561   3.363 -0.1550 -0.8957 -0.1703
 7227SOL    HW223123   1.570   7.592   3.510 -0.1930 -0.8071 -0.1844
 7228SOL     OW23124   1.278   1.502   6.054 -0.3159 -0.3854  0.5078
 7228SOL    HW123125   1.206   1.557   6.084 -0.2138  0.3631 -0.5797
 7228SOL    HW223126   1.241   1.451   5.982  0.4000  0.5182 -0.5335
 7229SOL     OW23127   5.795   2.017   1.667  0.3007  0.4171  0.3639
 7229SOL    HW123128   5.734   1.956   1.626  0.7557 -0.3912  0.8676
 7229SOL    HW223129   5.822   2.075   1.596  0.1469 -0.2067 -0.2110
 7230SOL     OW23130   2.285   3.995   1.358  0.2158 -1.1140  0.3121
 7230SOL    HW123131   2.203   3.946   1.358 -2.7472  3.2399  0.8931
 7230SOL    HW223132   2.307   4.004   1.266 -1.5073 -0.2474 -0.0639
 7231SOL     OW23133   0.380   3.017   0.985  0.4173 -0.7529  0.2984
 7231SOL    HW123134   0.455   2.970   1.022  0.6316 -0.2800  0.4620
 7231SOL    HW223135   0.418   3.089   0.935  0.1014 -0.9859 -0.2936
 7232SOL     OW23136   0.654   0.362   9.867 -0.2322  0.5550 -0.7294
 7232SOL    HW123137   0.704   0.435   9.830  0.3871 -0.3384 -1.6955
 7232SOL    HW223138   0.721   0.302   9.901 -0.5915 -0.7261 -2.1738
 7233SOL     OW23139   2.141   1.695   9.313  0.0602  0.3730 -0.0346
 7233SOL    HW123140   2.083   1.771   9.308  0.2197  0.6584  1.7983
 7233SOL    HW223141   2.176   1.697   9.402  2.1822 -0.3114 -0.7784
 7234SOL     OW23142   6.011   7.547   3.403  0.1043 -0.0310 -0.0593
 7234SOL    HW123143   5.962   7.483   3.351 -0.4211 -0.7501  1.2675
 7234SOL    HW223144   6.056   7.494   3.469 -1.8232  1.0761  2.2613
 7235SOL     OW23145   0.817   4.189   4.105  0.1424  0.2682 -0.4823
 7235SOL    HW123146   0.775   4.248   4.042 -0.5285 -0.1206 -0.4045
 7235SOL    HW223147   0.910   4.193   4.083 -0.2506 -1.2698 -2.7096
 7236SOL     OW23148   5.382   6.823   9.763 -0.1421  0.4320 -0.2586
 7236SOL    HW123149   5.393   6.791   9.853 -0.1123  2.4332  0.5252
 7236SOL    HW223150   5.289   6.846   9.757 -0.4476 -0.9382 -1.2312
 7237SOL     OW23151   6.503   1.124   2.227 -0.5271 -0.0677 -0.0489
 7237SOL    HW123152   6.496   1.071   2.148 -0.0125 -0.5761  0.2392
 7237SOL    HW223153   6.487   1.214   2.197 -0.9382 -0.3266 -0.6196
 7238SOL     OW23154   4.220   6.610   6.768 -0.2877 -0.0586 -0.0741
 7238SOL    HW123155   4.307   6.639   6.740  0.6938 -1.9538  0.8112
 7238SOL    HW223156   4.227   6.515   6.775 -2.5432 -0.3024 -0.2613
 7239SOL     OW23157   1.366   5.242   0.377 -0.4542  0.1141 -0.2145
 7239SOL    HW123158   1.375   5.208   0.288 -2.2432  0.5027 -0.5675
 7239SOL    HW223159   1.331   5.169   0.427  0.1534  0.0274  0.0934
 7240SOL     OW23160   3.087   0.615  11.955  0.4079 -0.4527  0.0481
 7240SOL    HW123161   2.998   0.642  11.977  0.6978  0.6912 -0.0951
 7240SOL    HW223162   3.083   0.520  11.951 -0.4255 -0.5163  1.6500
 7241SOL     OW23163   1.260   4.746   9.869 -0.4184 -0.7295 -0.0185
 7241SOL    HW123164   1.356   4.752   9.873 -0.4834 -0.1345  3.6466
 7241SOL    HW223165   1.231   4.837   9.863 -0.8197 -0.9396 -1.7847
 7242SOL     OW23166   3.168   4.287  10.520 -0.1536  0.2190 -0.4261
 7242SOL    HW123167   3.226   4.343  10.469 -1.6558  3.2752  0.9787
 7242SOL    HW223168   3.151   4.336  10.600 -4.5031 -0.5132 -0.6655
 7243SOL     OW23169   2.478   4.261   6.259 -0.2146 -0.1590 -0.9506
 7243SOL    HW123170   2.458   4.310   6.339  0.5897  0.6730 -1.2405
 7243SOL    HW223171   2.402   4.274   6.203 -0.2663  0.2527 -0.7898
 7244SOL     OW23172   2.488   3.211   8.093  0.5833 -0.6134 -0.1116
 7244SOL    HW123173   2.538   3.159   8.030 -0.5128 -0.1523 -1.4206
 7244SOL    HW223174   2.491   3.161   8.174 -0.6069 -2.8690 -1.3645
 7245SOL     OW23175   2.317   3.680   5.997 -0.6711  0.1016  0.5496
 7245SOL    HW123176   2.319   3.587   6.019 -2.3486  0.1724  1.1369
 7245SOL    HW223177   2.409   3.705   5.992 -0.1265 -1.8719 -0.9085
 7246SOL     OW23178   0.693   6.770   4.904 -0.4852  0.8754 -0.1402
 7246SOL    HW123179   0.608   6.756   4.862  1.0896 -2.3024 -2.7663
 7246SOL    HW223180   0.679   6.745   4.995 -2.2332 -0.3854 -0.7019
 7247SOL     OW23181   1.604   1.266   2.250  0.1725  0.4703 -0.3269
 7247SOL    HW123182   1.675   1.201   2.252  1.0379  1.1756 -3.3410
 7247SOL    HW223183   1.625   1.322   2.175 -3.2081  1.1796 -0.8834
 7248SOL     OW23184   3.156   4.692   2.353 -0.6065 -0.1611 -0.7420
 7248SOL    HW123185   3.205   4.626   2.401  0.6511  0.5224 -1.0434
 7248SOL    HW223186   3.221   4.758   2.329 -1.6073  0.5958 -1.4791
 7249SOL     OW23187   1.327   1.903   9.176 -0.1471  0.7135  0.1014
 7249SOL    HW123188   1.341   1.814   9.208  0.0834 -0.4112 -2.7577
 7249SOL    HW223189   1.372   1.959   9.240  2.0593 -1.4468  0.6138
 7250SOL     OW23190   6.506   6.267  11.169 -0.0801  0.5602 -0.2766
 7250SOL    HW123191   6.534   6.347  11.214  1.8347 -0.1472 -0.1467
 7250SOL    HW223192   6.469   6.298  11.086  0.9197  1.5669 -0.3688
 7251SOL     OW23193   6.226   7.165   0.450  0.3723  0.6266  0.9000
 7251SOL    HW123194   6.318   7.151   0.431  0.2631  0.7184  0.2829
 7251SOL    HW223195   6.223   7.250   0.494  0.8190 -0.3622  2.9405
 7252SOL     OW23196   0.958   0.339   8.345 -0.0568 -0.4654  0.0149
 7252SOL    HW123197   1.034   0.382   8.385  0.6452  0.2131 -1.9322
 7252SOL    HW223198   0.975   0.245   8.355  0.7970 -0.3154  0.0497
 7253SOL     OW23199   7.005   6.304   1.214  0.4041  0.3089 -0.2749
 7253SOL    HW123200   6.929   6.301   1.273  0.0473 -0.0473 -0.7481
 7253SOL    HW223201   7.020   6.398   1.199  0.0287  0.3798 -0.2156
 7254SOL     OW23202   7.039   2.622   1.511 -0.4585  0.2553  0.6352
 7254SOL    HW123203   7.019   2.629   1.417  1.5035  1.3176  0.2463
 7254SOL    HW223204   7.131   2.649   1.518 -0.6295  0.4144  2.9013
 7255SOL     OW23205   2.062   1.553  11.457  0.6632  0.0130 -0.3198
 7255SOL    HW123206   2.126   1.622  11.475  1.3664 -0.7060  0.0292
 7255SOL    HW223207   2.041   1.563  11.365  1.5885  0.0273 -0.5421
 7256SOL     OW23208   1.259   3.732   1.750  0.0143  0.4006 -0.6093
 7256SOL    HW123209   1.222   3.815   1.720  0.8152  0.0303 -2.7964
 7256SOL    HW223210   1.201   3.665   1.715 -1.1625 -0.0307  1.9138
 7257SOL     OW23211   7.085   3.280   3.715  0.3226 -0.3747  0.1646
 7257SOL    HW123212   7.008   3.270   3.771  0.4718 -0.2140  0.3993
 7257SOL    HW223213   7.089   3.373   3.697  0.4148 -0.3945  0.0853
 7258SOL     OW23214   1.963   4.111   1.570  0.1953  0.0527 -0.5513
 7258SOL    HW123215   1.921   4.193   1.597  2.4007  0.8846  0.6780
 7258SOL    HW223216   1.906   4.042   1.604  0.3166  1.0992  2.0129
 7259SOL     OW23217   1.654   4.905   9.597 -0.1508  0.5865 -0.4493
 7259SOL    HW123218   1.697   4.942   9.520 -0.3226  3.5822  0.7693
 7259SOL    HW223219   1.561   4.927   9.585 -0.9218 -2.5234 -1.2361
 7260SOL     OW23220   3.544   2.654   7.772 -0.7718 -0.4924  0.0211
 7260SOL    HW123221   3.479   2.721   7.753 -1.3683 -0.8219  0.8808
 7260SOL    HW223222   3.501   2.595   7.833 -0.2514 -1.6616 -0.7087
 7261SOL     OW23223   4.128   3.273   8.062  0.0495 -0.3977 -0.4998
 7261SOL    HW123224   4.117   3.367   8.076  1.9342 -0.2742  0.3517
 7261SOL    HW223225   4.109   3.234   8.147 -0.4990 -0.7903 -0.7943
 7262SOL     OW23226   4.095   4.801   0.528 -0.1348 -0.3942 -0.1771
 7262SOL    HW123227   4.082   4.887   0.488 -1.1068 -0.6262 -0.3892
 7262SOL    HW223228   4.107   4.742   0.454 -2.4320 -0.9072 -0.2091
 7263SOL     OW23229   1.479   6.584   7.614 -0.3104 -0.0698 -0.1086
 7263SOL    HW123230   1.471   6.667   7.661 -0.5342 -0.8234  1.2554
 7263SOL    HW223231   1.531   6.528   7.673 -0.4661 -1.0024 -0.8314
 7264SOL     OW23232   2.873   3.579  12.193 -0.1233 -0.1264 -0.1335
 7264SOL    HW123233   2.780   3.557  12.186 -0.5519  1.9664 -2.1889
 7264SOL    HW223234   2.887   3.594  12.287 -1.4091 -2.0739  0.4309
 7265SOL     OW23235   1.494   1.813   1.584  0.1837 -0.5675 -1.0091
 7265SOL    HW123236   1.560   1.750   1.554  3.2200  2.9837 -2.6491
 7265SOL    HW223237   1.446   1.836   1.505  1.6020  1.6642 -1.3218
 7266SOL     OW23238   1.614   1.848   7.978 -0.1037 -0.4994 -0.5002
 7266SOL    HW123239   1.690   1.902   7.961 -0.5263  1.3293  2.5789
 7266SOL    HW223240   1.631   1.808   8.064 -1.4400 -2.2926 -0.9885
 7267SOL     OW23241   4.343   6.564   0.960  0.2812  0.2916  0.1196
 7267SOL    HW123242   4.359   6.555   1.054 -0.7278  0.8338  0.3681
 7267SOL    HW223243   4.388   6.490   0.920  0.2951 -0.2327  1.0826
 7268SOL     OW23244   5.836   7.909   4.809  0.3540  0.2013  0.0860
 7268SOL    HW123245   5.807   7.872   4.893 -0.4829  1.0882  0.2060
 7268SOL    HW223246   5.930   7.921   4.820  0.5098 -1.0660  0.3492
 7269SOL     OW23247   4.643   2.144  10.442 -0.3651  0.3254  0.2574
 7269SOL    HW123248   4.660   2.108  10.529 -0.2313  2.6728  1.2814
 7269SOL    HW223249   4.573   2.089  10.407  1.3283 -2.2772  0.7360
 7270SOL     OW23250   1.614   3.999   3.140 -0.1785  0.2153  0.7839
 7270SOL    HW123251   1.680   4.064   3.117 -0.4345  0.3690  0.4720
 7270SOL    HW223252   1.603   4.008   3.235  1.0513 -0.5791  1.0254
 7271SOL     OW23253   7.681   4.020  11.330  0.5294 -0.5340  0.2112
 7271SOL    HW123254   7.681   3.926  11.350  0.3699 -0.5768  0.0123
 7271SOL    HW223255   7.658   4.024  11.237 -0.2979 -0.2549  0.4244
 7272SOL     OW23256   0.019   4.032  10.992  0.2907 -0.1765 -0.5079
 7272SOL    HW123257   0.105   4.017  10.952  0.6025  1.0834 -0.3790
 7272SOL    HW223258   0.039   4.082  11.072 -0.5263 -0.3394 -0.1905
 7273SOL     OW23259   2.942   1.807   2.258  0.4720 -0.4280  0.2867
 7273SOL    HW123260   2.986   1.792   2.342  1.0189  0.1602  0.1191
 7273SOL    HW223261   2.968   1.896   2.234  0.5562 -0.6929 -0.6443
 7274SOL     OW23262   0.191   5.044   0.287 -0.2537 -0.3750 -0.5722
 7274SOL    HW123263   0.215   5.008   0.372  1.4188  0.3132 -0.7174
 7274SOL    HW223264   0.166   5.135   0.306 -0.8666 -0.5162 -0.6897
 7275SOL     OW23265   6.777   0.077   0.825  0.3057 -0.1879  0.4716
 7275SOL    HW123266   6.747   0.067   0.915 -3.4557  2.0462 -0.3464
 7275SOL    HW223267   6.795   0.171   0.815 -1.6275  0.0440 -1.6218
 7276SOL     OW23268   3.626   6.739   1.142  0.6610  0.5376 -0.2481
 7276SOL    HW123269   3.556   6.702   1.087 -1.0482  1.9065  0.8630
 7276SOL    HW223270   3.609   6.703   1.229  0.1686  2.2871  0.4195
 7277SOL     OW23271   5.390   6.012   0.812  0.0376 -0.0644 -0.3127
 7277SOL    HW123272   5.381   5.931   0.762 -3.2421 -0.5996  0.8534
 7277SOL    HW223273   5.421   5.984   0.898 -1.3272 -0.1872  0.1672
 7278SOL     OW23274   0.746   7.273   7.146  0.1320  0.1521  0.8699
 7278SOL    HW123275   0.830   7.285   7.102 -0.5060  1.3077 -0.0973
 7278SOL    HW223276   0.688   7.337   7.105 -1.0916 -0.2659  1.8757
 7279SOL     OW23277   4.854   1.851   0.037 -0.6812  0.3141  0.3702
 7279SOL    HW123278   4.883   1.918  -0.025 -0.3161  0.3895  0.6214
 7279SOL    HW223279   4.831   1.776  -0.018 -2.0255  0.9702  0.0067
 7280SOL     OW23280   4.818   3.094   4.868 -0.1883  0.0505 -0.8177
 7280SOL    HW123281   4.891   3.155   4.856 -0.5563  0.5666 -0.4490
 7280SOL    HW223282   4.847   3.037   4.939 -0.5530  0.8962  0.0244
 7281SOL     OW23283   4.144   5.365   2.472 -0.1603  0.0095 -0.6842
 7281SOL    HW123284   4.199   5.421   2.527  0.4299  0.0240 -1.2608
 7281SOL    HW223285   4.100   5.426   2.413 -0.5044 -0.0324 -0.4682
 7282SOL     OW23286   5.807   6.058   6.086 -0.3780  0.0554  0.9226
 7282SOL    HW123287   5.846   6.142   6.062 -2.3952  0.6758 -0.5079
 7282SOL    HW223288   5.741   6.043   6.018  0.0263 -2.7830  1.0548
 7283SOL     OW23289   5.171   4.874  11.420  0.6137  0.2202 -0.4000
 7283SOL    HW123290   5.152   4.854  11.512 -3.6242 -0.3749 -1.2070
 7283SOL    HW223291   5.209   4.793  11.386  1.3312  0.1249  0.5699
 7284SOL     OW23292   2.171   3.876   5.867 -0.3058 -0.0769 -0.3730
 7284SOL    HW123293   2.224   3.804   5.900 -0.8691 -1.2004 -1.7950
 7284SOL    HW223294   2.189   3.949   5.927  1.6472 -0.8582  0.0703
 7285SOL     OW23295   5.961   1.060   1.883 -0.6828 -0.4186 -0.0749
 7285SOL    HW123296   5.868   1.054   1.905 -0.9682 -1.7541 -1.4936
 7285SOL    HW223297   5.964   1.053   1.788  0.8029  0.8483 -0.1681
 7286SOL     OW23298   7.039   1.206   2.300  0.2983  0.0675 -0.1239
 7286SOL    HW123299   6.945   1.221   2.286  0.0284 -1.3478 -0.0140
 7286SOL    HW223300   7.082   1.253   2.229 -0.3660  2.2551  0.8387
 7287SOL     OW23301   5.803   6.642   5.988 -0.1860  0.2454  0.2446
 7287SOL    HW123302   5.724   6.627   6.040  0.3879 -1.1323  0.7631
 7287SOL    HW223303   5.849   6.712   6.034 -1.0593  1.0335 -0.0390
 7288SOL     OW23304   3.033   4.952   8.808 -0.0620  0.5441  0.8120
 7288SOL    HW123305   3.014   5.011   8.735 -1.6564 -1.1433 -0.2208
 7288SOL    HW223306   3.082   4.880   8.769 -0.7136 -0.2612  1.4322
 7289SOL     OW23307   0.574   7.383   5.336  0.4920 -0.0964  0.1551
 7289SOL    HW123308   0.636   7.385   5.408 -1.1051  1.6885  1.5684
 7289SOL    HW223309   0.526   7.465   5.343 -2.2528 -1.5099 -0.6436
 7290SOL     OW23310   6.951   5.385   1.877  0.0642  0.0011 -0.3067
 7290SOL    HW123311   6.904   5.394   1.960  1.0591 -1.1303  0.4183
 7290SOL    HW223312   7.006   5.463   1.872 -2.7614  2.0703 -1.8347
 7291SOL     OW23313   1.333   6.606  11.746  0.4889  0.4033  0.3641
 7291SOL    HW123314   1.327   6.599  11.650  0.8038 -0.1862  0.3841
 7291SOL    HW223315   1.269   6.543  11.779  2.6049 -1.7858  0.5391
 7292SOL     OW23316   7.823   0.648   9.722  0.3210 -0.4435  0.8676
 7292SOL    HW123317   7.875   0.656   9.802  1.7305 -1.0647  0.0471
 7292SOL    HW223318   7.734   0.630   9.753  0.8951 -1.0047  2.2870
 7293SOL     OW23319   1.142   3.745   4.403  0.3326 -0.2666  0.6210
 7293SOL    HW123320   1.140   3.752   4.499 -2.4903 -1.6738  0.7369
 7293SOL    HW223321   1.170   3.656   4.385  2.6457  0.4948 -0.0155
 7294SOL     OW23322   6.107   3.072  10.480  0.0779  0.0187 -0.2995
 7294SOL    HW123323   6.099   3.136  10.410 -0.5581  0.4776  0.1855
 7294SOL    HW223324   6.193   3.088  10.518  0.3329 -0.0873 -0.8307
 7295SOL     OW23325   4.726   5.758   5.846 -0.1928 -0.1310 -0.4386
 7295SOL    HW123326   4.725   5.788   5.755 -0.2419 -1.6582 -0.9725
 7295SOL    HW223327   4.748   5.665   5.840 -2.0843 -0.7270  0.9483
 7296SOL     OW23328   5.695   7.095   1.530 -0.1987 -0.0934 -0.1572
 7296SOL    HW123329   5.733   7.028   1.473  1.0043 -0.2536  0.7920
 7296SOL    HW223330   5.647   7.153   1.470 -0.1824 -1.0728 -1.1445
 7297SOL     OW23331   1.803   4.402  11.035 -0.3046  0.4003  0.1666
 7297SOL    HW123332   1.777   4.487  11.070 -0.3170  0.5476 -0.1888
 7297SOL    HW223333   1.721   4.353  11.028 -0.1577 -0.0377  1.4005
 7298SOL     OW23334   3.404   7.309   8.829 -0.6619 -0.4064  0.1991
 7298SOL    HW123335   3.371   7.314   8.918 -0.2654  0.1332  0.3174
 7298SOL    HW223336   3.414   7.400   8.801 -0.9950 -0.5656 -0.4776
 7299SOL     OW23337   6.214   6.699  12.083  0.0614 -0.1407 -0.7487
 7299SOL    HW123338   6.269   6.682  12.006 -1.6102 -2.6909 -1.5002
 7299SOL    HW223339   6.126   6.678  12.054 -1.2123  2.5953  0.8054
 7300SOL     OW23340   2.190   7.813   2.282 -0.4022 -0.1204 -0.1020
 7300SOL    HW123341   2.240   7.747   2.330 -1.2826 -1.3587 -0.8068
 7300SOL    HW223342   2.098   7.787   2.294 -0.8931  1.8781  0.8596
 7301SOL     OW23343   3.073   7.532   7.366 -0.1675 -0.6347  0.4814
 7301SOL    HW123344   3.050   7.443   7.338 -1.7539 -0.0691 -0.1290
 7301SOL    HW223345   3.082   7.525   7.461  1.0477 -1.7054  0.3157
 7302SOL     OW23346   5.231   2.814   9.804  0.0413 -0.3233  0.2947
 7302SOL    HW123347   5.213   2.903   9.774 -0.0553 -0.5353 -0.2864
 7302SOL    HW223348   5.171   2.801   9.877 -2.5013 -1.1206 -1.7803
 7303SOL     OW23349   4.868   4.427   9.385  0.0541  0.0367  0.0568
 7303SOL    HW123350   4.955   4.391   9.369 -0.4673 -0.7214 -1.1986
 7303SOL    HW223351   4.817   4.353   9.419 -0.2213  0.3641  0.3631
 7304SOL     OW23352   2.720   4.243  10.763 -0.2263 -0.4423  0.0496
 7304SOL    HW123353   2.803   4.197  10.779 -0.8026 -1.5777 -0.1145
 7304SOL    HW223354   2.674   4.240  10.847  0.6603  1.8932  0.7054
 7305SOL     OW23355   5.273   4.028   5.248  0.5218 -0.5058 -0.2285
 7305SOL    HW123356   5.187   4.048   5.212 -0.2694 -1.0503  1.2481
 7305SOL    HW223357   5.314   3.972   5.182 -0.4559 -0.6521 -0.7308
 7306SOL     OW23358   7.430   1.294  10.175 -0.3489 -0.0179 -0.1297
 7306SOL    HW123359   7.392   1.264  10.093  0.2253 -1.2561  0.0361
 7306SOL    HW223360   7.425   1.389  10.171  0.1747 -0.0355 -1.8438
 7307SOL     OW23361   0.575   5.506   1.365 -0.3031 -0.4545  0.3277
 7307SOL    HW123362   0.523   5.570   1.316 -0.8360 -1.0174  0.1506
 7307SOL    HW223363   0.596   5.550   1.447  0.5901  0.5045 -0.3782
 7308SOL     OW23364   2.140   7.389   8.756  0.7333 -0.1424 -0.1310
 7308SOL    HW123365   2.138   7.391   8.852  0.4519 -0.3621 -0.1327
 7308SOL    HW223366   2.052   7.364   8.730  0.4286  1.2153 -0.4924
 7309SOL     OW23367   7.000   5.511   8.945  0.1513 -0.0364 -0.3285
 7309SOL    HW123368   6.980   5.459   9.024  0.9238 -0.7804 -0.6185
 7309SOL    HW223369   7.022   5.598   8.979  1.1741 -0.5435  0.3367
 7310SOL     OW23370   7.884   6.522   5.986  0.1152 -0.2003  0.2788
 7310SOL    HW123371   7.925   6.573   6.056  0.2068  1.4049 -0.8688
 7310SOL    HW223372   7.945   6.531   5.912 -0.3659 -1.1594 -0.2526
 7311SOL     OW23373   2.469   2.676   6.921 -0.2748  0.1818 -0.0189
 7311SOL    HW123374   2.478   2.721   6.837 -0.6961  0.2781 -0.0170
 7311SOL    HW223375   2.517   2.594   6.910  0.1324  0.4399 -0.1694
 7312SOL     OW23376   4.681   4.133   1.721 -0.5272  0.3227 -0.2373
 7312SOL    HW123377   4.774   4.149   1.704 -0.9059  1.7006 -1.2705
 7312SOL    HW223378   4.674   4.130   1.816  0.7663 -1.2590 -0.1395
 7313SOL     OW23379   3.636   2.935   5.092  0.2040 -0.1954  0.0540
 7313SOL    HW123380   3.704   2.974   5.147  0.9645  0.5816 -1.3862
 7313SOL    HW223381   3.678   2.859   5.052  0.1854  0.1573 -0.6646
 7314SOL     OW23382   0.795   4.971   6.902 -0.0117 -0.5843 -0.4270
 7314SOL    HW123383   0.770   5.052   6.947 -1.1267 -0.0445 -1.9362
 7314SOL    HW223384   0.884   4.954   6.931  0.2836  1.2470 -0.1326
 7315SOL     OW23385   1.679   1.394   4.275  0.3287 -0.0404 -0.1332
 7315SOL    HW123386   1.686   1.457   4.347 -0.2730  1.7320 -1.5614
 7315SOL    HW223387   1.743   1.326   4.297  0.6063  0.7528  1.7517
 7316SOL     OW23388   2.922   4.808   1.419  0.2677  0.1112  0.0863
 7316SOL    HW123389   2.919   4.850   1.505  0.3995 -2.0520  1.2189
 7316SOL    HW223390   2.869   4.864   1.362 -0.1768  1.3583  1.6733
 7317SOL     OW23391   0.659   3.518   6.429  0.1558  0.4551 -0.0108
 7317SOL    HW123392   0.607   3.558   6.360 -1.4993 -0.7106  0.4929
 7317SOL    HW223393   0.598   3.506   6.501  1.0455 -1.1906  0.5321
 7318SOL     OW23394   2.811   4.972   3.428  0.4119 -0.8748 -0.1645
 7318SOL    HW123395   2.825   4.877   3.429 -1.6081 -1.2026 -0.1049
 7318SOL    HW223396   2.727   4.984   3.385  0.4018  0.8666  0.2575
 7319SOL     OW23397   3.529   5.621   8.864 -0.1665 -0.1251 -0.1625
 7319SOL    HW123398   3.483   5.706   8.868 -1.2144 -0.5216 -2.3622
 7319SOL    HW223399   3.541   5.605   8.770  1.4293 -1.6946  0.2706
 7320SOL     OW23400   5.903   0.094   0.166  0.1596 -0.3881 -0.2048
 7320SOL    HW123401   5.889   0.066   0.256  1.2692 -2.4213 -0.6116
 7320SOL    HW223402   5.821   0.075   0.121 -0.1407 -0.0519  0.1840
 7321SOL     OW23403   1.791   1.651   2.185  0.0371 -0.8459 -0.2308
 7321SOL    HW123404   1.770   1.575   2.131 -0.3516 -0.9840  0.1069
 7321SOL    HW223405   1.878   1.678   2.156  0.2373 -1.5078 -0.2584
 7322SOL     OW23406   4.276   5.121   9.075  0.2461 -0.7683 -0.1786
 7322SOL    HW123407   4.227   5.038   9.073 -0.2364 -0.4814 -0.4984
 7322SOL    HW223408   4.267   5.155   8.987  2.0162 -1.2649 -0.5787
 7323SOL     OW23409   6.809   0.842   6.003  0.0280 -0.0784 -0.0302
 7323SOL    HW123410   6.755   0.914   6.036  1.8325  0.6530  1.5571
 7323SOL    HW223411   6.872   0.884   5.944  0.1165 -0.6077 -0.3211
 7324SOL     OW23412   7.809   1.488   5.870 -0.2916  0.0676  0.3385
 7324SOL    HW123413   7.716   1.469   5.884 -0.2225  0.4404  1.4051
 7324SOL    HW223414   7.850   1.468   5.953  0.4815  0.5689  0.0882
 7325SOL     OW23415   2.175   1.719   8.807  0.3903 -0.5163  0.5956
 7325SOL    HW123416   2.217   1.735   8.891 -0.0099  2.9733  0.3089
 7325SOL    HW223417   2.242   1.742   8.742 -0.2940  0.0385  0.0669
 7326SOL     OW23418   3.588   7.047   1.258 -0.0733 -0.2077 -0.1847
 7326SOL    HW123419   3.618   7.004   1.338 -1.5059 -0.1997  0.3804
 7326SOL    HW223420   3.617   6.989   1.187 -0.2652 -1.0915  0.4420
 7327SOL     OW23421   5.796   6.866   4.229 -0.5204  0.3540 -0.4347
 7327SOL    HW123422   5.847   6.815   4.292  0.2661  1.5063 -0.1254
 7327SOL    HW223423   5.757   6.937   4.280 -0.0952  1.1413 -1.1899
 7328SOL     OW23424   5.271   5.975   5.141 -0.5589  0.3623 -0.2012
 7328SOL    HW123425   5.341   6.009   5.197 -0.6700  1.0586 -0.4755
 7328SOL    HW223426   5.316   5.916   5.080 -0.4949 -0.7250  0.8639
 7329SOL     OW23427   5.724   5.817   4.247 -0.1519 -0.0507  0.1404
 7329SOL    HW123428   5.641   5.814   4.201  0.2741 -0.2288 -0.6424
 7329SOL    HW223429   5.722   5.741   4.306 -0.0290 -0.8229 -0.8132
 7330SOL     OW23430   0.767   4.203  10.357  0.8437  0.2737  0.5364
 7330SOL    HW123431   0.752   4.259  10.281  1.7089  0.2524  0.3328
 7330SOL    HW223432   0.779   4.115  10.319 -1.7141 -0.3208  0.9328
 7331SOL     OW23433   6.514   2.428   2.139  0.4808  0.1873 -0.6563
 7331SOL    HW123434   6.530   2.432   2.045  1.3993 -0.6567 -0.5551
 7331SOL    HW223435   6.419   2.419   2.147  0.3105  1.1463 -1.4586
 7332SOL     OW23436   7.188   2.240   3.518  0.2904  0.0432  0.0529
 7332SOL    HW123437   7.209   2.193   3.437  0.1455 -0.1332  0.1163
 7332SOL    HW223438   7.271   2.244   3.565  0.2213 -0.5219  0.2356
 7333SOL     OW23439   2.007   1.215   3.573 -0.5208 -0.2113 -0.2700
 7333SOL    HW123440   1.926   1.164   3.584 -0.3803 -0.2790  0.4868
 7333SOL    HW223441   2.031   1.202   3.481 -1.4073 -0.1375 -0.5248
 7334SOL     OW23442   5.999   7.789   5.718  0.2547  0.0766 -0.1701
 7334SOL    HW123443   6.078   7.829   5.682  1.3568 -1.7515  0.0965
 7334SOL    HW223444   5.936   7.792   5.646  0.7947  0.8888 -0.6281
 7335SOL     OW23445   1.682   7.511  10.756 -0.3139  0.1640 -0.3754
 7335SOL    HW123446   1.773   7.481  10.758 -0.6890 -1.0950  1.8314
 7335SOL    HW223447   1.637   7.447  10.700  0.1017  0.6186 -1.2330
 7336SOL     OW23448   5.881   7.655   1.418  0.1376 -0.1390  0.4915
 7336SOL    HW123449   5.846   7.655   1.506 -0.0615  0.3593  0.4141
 7336SOL    HW223450   5.875   7.564   1.389  0.1855 -0.2971  0.9817
 7337SOL     OW23451   3.039   6.172   4.549 -0.7212  0.2818 -0.3757
 7337SOL    HW123452   3.014   6.217   4.630 -0.6908 -0.7216  0.2071
 7337SOL    HW223453   3.054   6.082   4.576  0.4828  0.1877 -1.2829
 7338SOL     OW23454   1.055   5.758  11.455  0.5073  0.0038  0.3146
 7338SOL    HW123455   1.067   5.675  11.409 -0.5025 -0.6596  1.1928
 7338SOL    HW223456   1.144   5.791  11.469  0.8692  0.4193 -2.3505
 7339SOL     OW23457   3.069   7.305   5.646  0.0825  0.3987  1.0573
 7339SOL    HW123458   3.013   7.227   5.643  0.6897 -0.0151 -0.9602
 7339SOL    HW223459   3.008   7.378   5.656 -0.9795  0.0089 -1.6370
 7340SOL     OW23460   1.105   6.549  10.321 -0.1359  0.3090 -0.3779
 7340SOL    HW123461   1.064   6.586  10.399 -0.8157 -0.2430 -0.4618
 7340SOL    HW223462   1.044   6.568  10.250  0.9324  1.6599 -0.9722
 7341SOL     OW23463   7.749   0.523   2.039 -0.2012 -0.1470 -0.2949
 7341SOL    HW123464   7.727   0.431   2.027  0.3080 -0.2984 -0.1084
 7341SOL    HW223465   7.812   0.542   1.969  0.3191 -0.1647  0.1639
 7342SOL     OW23466   7.709   2.780   9.116 -0.3517  0.0923 -0.2767
 7342SOL    HW123467   7.736   2.698   9.157 -1.8254 -0.2202  0.1446
 7342SOL    HW223468   7.731   2.847   9.180  2.3453  0.2638 -1.2858
 7343SOL     OW23469   5.766   2.560  11.894  0.0063  0.3286  0.6335
 7343SOL    HW123470   5.685   2.597  11.857 -0.7197 -0.0868  1.7582
 7343SOL    HW223471   5.768   2.470  11.862 -0.9969 -0.2597  2.0812
 7344SOL     OW23472   7.501   1.716   4.692 -0.2465 -0.0179  0.0544
 7344SOL    HW123473   7.539   1.630   4.711  1.3826 -0.3142 -3.6918
 7344SOL    HW223474   7.447   1.702   4.615 -1.2677  2.0684  0.3252
 7345SOL     OW23475   6.040   1.917  11.089 -0.1042  0.1138  0.0408
 7345SOL    HW123476   6.102   1.983  11.058  2.2763 -1.7385  0.6062
 7345SOL    HW223477   6.026   1.861  11.012 -1.5257  0.7781 -0.2195
 7346SOL     OW23478   0.491   3.248   2.786 -0.3157  0.5081 -0.6703
 7346SOL    HW123479   0.477   3.311   2.716 -0.3077  1.0215 -0.2190
 7346SOL    HW223480   0.524   3.301   2.859  1.2872 -0.2647 -0.8096
 7347SOL     OW23481   2.040   2.821  10.231 -0.1840 -0.2477  0.4446
 7347SOL    HW123482   2.024   2.807  10.324 -0.5609 -2.1502  0.1312
 7347SOL    HW223483   1.953   2.824  10.192 -0.0101 -0.2381  0.0560
 7348SOL     OW23484   0.145   7.835   1.986  0.8539 -0.0502 -0.4037
 7348SOL    HW123485   0.182   7.920   2.010 -0.0626  0.1833  0.2555
 7348SOL    HW223486   0.050   7.850   1.986  0.7484 -0.3568 -3.0527
 7349SOL     OW23487   2.100   1.619   0.779  0.3662  0.0802  0.9463
 7349SOL    HW123488   2.146   1.570   0.711 -0.2862  0.9911 -0.2129
 7349SOL    HW223489   2.169   1.663   0.829  0.8206  1.0563 -0.4649
 7350SOL     OW23490   7.113   2.735   2.864 -0.7007 -1.1730  0.3862
 7350SOL    HW123491   7.064   2.761   2.785  0.2175 -0.0387  0.1564
 7350SOL    HW223492   7.099   2.808   2.924  0.3907 -1.0106  0.4512
 7351SOL     OW23493   1.294   0.066   7.616 -0.0980  0.0989  0.4961
 7351SOL    HW123494   1.283  -0.016   7.665 -0.2884  0.1252  0.4988
 7351SOL    HW223495   1.230   0.126   7.655 -0.8877 -0.1465 -0.3619
 7352SOL     OW23496   0.773   0.472  12.321 -0.6084 -0.3001  0.1926
 7352SOL    HW123497   0.719   0.395  12.333 -0.3668 -0.7320 -1.2937
 7352SOL    HW223498   0.738   0.514  12.242  0.1763  0.3011  0.1504
 7353SOL     OW23499   5.744   1.107   0.922  0.0602  0.1114 -0.2289
 7353SOL    HW123500   5.805   1.166   0.877 -0.9493  0.2988 -1.3978
 7353SOL    HW223501   5.790   1.023   0.924  0.5401  0.3591 -0.6980
 7354SOL     OW23502   4.457   1.635   9.685 -0.3168  0.2162 -0.1279
 7354SOL    HW123503   4.483   1.610   9.774  0.7954 -3.0087 -1.1851
 7354SOL    HW223504   4.540   1.654   9.641 -0.3587 -2.0494 -1.3751
 7355SOL     OW23505   4.568   4.757   7.567 -0.3500  0.3100  0.0457
 7355SOL    HW123506   4.545   4.665   7.584  1.8943 -0.5810 -1.3654
 7355SOL    HW223507   4.540   4.772   7.476  0.0282  0.7726  0.0034
 7356SOL     OW23508   3.819   2.751   0.743  0.3048 -0.0382  0.4947
 7356SOL    HW123509   3.819   2.736   0.648  0.8450  0.5087  0.4009
 7356SOL    HW223510   3.754   2.690   0.777 -0.3818  0.2336 -0.3016
 7357SOL     OW23511   4.211   7.771   1.091 -0.6100 -0.2633 -0.1551
 7357SOL    HW123512   4.269   7.699   1.067 -0.8243 -0.2921 -0.5805
 7357SOL    HW223513   4.128   7.729   1.114 -0.3843 -0.2479  0.7423
 7358SOL     OW23514   7.265   1.756   8.290  0.5685  0.1910  0.8873
 7358SOL    HW123515   7.272   1.662   8.273 -0.1638  0.6165 -2.3531
 7358SOL    HW223516   7.177   1.766   8.327  0.5276 -0.3521  0.9490
 7359SOL     OW23517   7.508   1.946   6.034 -0.4266 -0.1917 -0.1395
 7359SOL    HW123518   7.504   1.875   5.970 -0.4433  1.2031 -1.7791
 7359SOL    HW223519   7.595   1.983   6.024 -0.0541 -0.5977  1.4275
 7360SOL     OW23520   7.628   4.626   3.976  0.4872 -0.0182  0.4377
 7360SOL    HW123521   7.712   4.583   3.958  0.3656  0.9177 -2.8836
 7360SOL    HW223522   7.587   4.570   4.042  1.2518 -3.8692 -2.0269
 7361SOL     OW23523   0.374   7.051   6.177  0.3090  0.7002  0.1786
 7361SOL    HW123524   0.307   6.994   6.214  1.0680  0.1071  0.6821
 7361SOL    HW223525   0.416   6.997   6.109  1.7912  0.2027  1.4253
 7362SOL     OW23526   0.372   3.549   8.535  0.1175 -0.0246  0.1077
 7362SOL    HW123527   0.404   3.630   8.575  1.0340 -0.9410  1.2941
 7362SOL    HW223528   0.312   3.579   8.466  1.7442  1.7316 -0.6561
 7363SOL     OW23529   2.968   3.176  10.146 -0.0800  0.3640 -0.9908
 7363SOL    HW123530   2.979   3.193  10.053  0.4840  0.9972 -0.8180
 7363SOL    HW223531   2.896   3.233  10.173 -0.2371  0.1876 -1.0350
 7364SOL     OW23532   5.694   7.329   1.247 -0.6212 -0.1587 -0.2331
 7364SOL    HW123533   5.788   7.329   1.228 -0.7412  1.6267 -1.0457
 7364SOL    HW223534   5.660   7.403   1.197 -2.0384  0.9358  2.1772
 7365SOL     OW23535   3.173   2.188   4.273 -0.6697 -0.5830  0.4842
 7365SOL    HW123536   3.246   2.250   4.275 -0.9339 -0.1882 -0.9158
 7365SOL    HW223537   3.109   2.225   4.333 -1.4359  1.3581 -1.3837
 7366SOL     OW23538   6.291   2.045   3.832 -0.2979  0.3680 -0.1082
 7366SOL    HW123539   6.208   2.040   3.879 -0.1493 -0.0865  0.1046
 7366SOL    HW223540   6.312   1.955   3.809  0.2215  0.4598 -0.0149
 7367SOL     OW23541   3.124   6.417   2.416  0.4274  0.4538  0.1425
 7367SOL    HW123542   3.191   6.450   2.476 -0.3824  0.3346  1.1410
 7367SOL    HW223543   3.065   6.366   2.472 -0.2248  0.1512 -0.8003
 7368SOL     OW23544   4.106   1.120   7.654  0.5315 -0.1858 -0.1069
 7368SOL    HW123545   4.197   1.094   7.645  1.3520  2.0966  0.9162
 7368SOL    HW223546   4.075   1.133   7.565  1.6305  0.3592 -0.4149
 7369SOL     OW23547   3.137   0.587   9.092  0.2005 -0.2470  0.4993
 7369SOL    HW123548   3.195   0.644   9.143  1.8392 -0.6692 -0.8239
 7369SOL    HW223549   3.055   0.585   9.143  0.8015  1.5902  1.6335
 7370SOL     OW23550   7.568   5.392   7.050  0.0135 -0.0894 -0.7139
 7370SOL    HW123551   7.625   5.467   7.063 -2.1224  1.7135 -1.2602
 7370SOL    HW223552   7.540   5.367   7.139 -1.3643  1.5260 -0.6483
 7371SOL     OW23553   5.943   0.914   7.468  0.1854  0.0318 -0.3528
 7371SOL    HW123554   5.888   0.893   7.393  0.8150 -0.7006 -0.6193
 7371SOL    HW223555   5.923   0.846   7.532  0.8009 -0.2578 -0.4634
 7372SOL     OW23556   4.897   1.748  10.677 -0.4174 -0.5632  1.0049
 7372SOL    HW123557   4.973   1.732  10.622 -1.4815  0.8036 -1.0153
 7372SOL    HW223558   4.868   1.662  10.704  0.2503 -1.3074 -0.5055
 7373SOL     OW23559   4.298   1.757  11.654  0.0182 -0.2476  0.4448
 7373SOL    HW123560   4.247   1.838  11.649 -0.4568 -0.5314  0.6970
 7373SOL    HW223561   4.322   1.738  11.563  0.4538  0.3730  0.4173
 7374SOL     OW23562   2.462   7.594   3.010 -0.0753  0.4206  0.4947
 7374SOL    HW123563   2.386   7.567   3.061 -0.4964  1.2058  0.2945
 7374SOL    HW223564   2.426   7.620   2.925  0.4876  0.2233  0.1883
 7375SOL     OW23565   7.311   2.674   5.933  0.0865  0.2810  0.3956
 7375SOL    HW123566   7.397   2.681   5.891  0.5443 -0.6144  1.1310
 7375SOL    HW223567   7.294   2.580   5.936 -0.5689  0.4088  0.9418
 7376SOL     OW23568   2.563   2.477   6.705 -0.0384 -0.0317  0.2396
 7376SOL    HW123569   2.494   2.490   6.640 -0.4581 -1.8270  0.2843
 7376SOL    HW223570   2.589   2.386   6.695  0.8372  0.0230  1.6957
 7377SOL     OW23571   6.926   1.614  10.053 -0.2305 -0.3569  0.1540
 7377SOL    HW123572   6.975   1.532  10.050 -1.9125 -1.3879  0.1235
 7377SOL    HW223573   6.896   1.621  10.144  0.8361  0.8351  0.4544
 7378SOL     OW23574   6.471   2.576   7.556 -0.6771  0.1791  0.3318
 7378SOL    HW123575   6.547   2.518   7.548 -0.0778  1.0097 -0.1164
 7378SOL    HW223576   6.450   2.601   7.466 -0.1010  1.6795  0.5775
 7379SOL     OW23577   7.921   3.718   6.369 -0.1108 -0.3757  0.1411
 7379SOL    HW123578   7.927   3.801   6.415  0.4596  0.5176 -1.4965
 7379SOL    HW223579   8.007   3.678   6.380  0.3380  0.2697 -0.9074
 7380SOL     OW23580   1.537   2.674   5.911 -0.3011  0.3834  0.2158
 7380SOL    HW123581   1.502   2.762   5.914  1.3519  1.0584  2.6247
 7380SOL    HW223582   1.632   2.685   5.922 -0.3110 -1.7351  4.5449
 7381SOL     OW23583   2.909   3.052   2.694 -0.3769 -0.3097  0.2708
 7381SOL    HW123584   2.886   3.140   2.665 -2.6787 -0.7269  0.6399
 7381SOL    HW223585   2.922   3.061   2.788  1.3173 -0.0617  0.0590
 7382SOL     OW23586   5.634   7.254   0.520  0.0746 -0.5651  0.2386
 7382SOL    HW123587   5.624   7.212   0.606  1.0849  0.1176  0.7135
 7382SOL    HW223588   5.726   7.239   0.497  0.8054  2.2043  0.9307
 7383SOL     OW23589   1.903   6.603  11.681 -0.2043  0.0120 -0.0744
 7383SOL    HW123590   1.818   6.644  11.697  0.2172  0.7479  0.3159
 7383SOL    HW223591   1.883   6.527  11.627 -1.0687  0.4054 -0.3249
 7384SOL     OW23592   0.981   6.147  12.086 -0.1098  0.0979 -0.1128
 7384SOL    HW123593   0.977   6.222  12.144 -1.1509  1.2091 -1.5523
 7384SOL    HW223594   0.896   6.104  12.094  0.1496 -0.4045  0.0195
 7385SOL     OW23595   5.463   7.507   4.001 -0.1043 -0.0674 -0.2096
 7385SOL    HW123596   5.535   7.466   3.952 -0.3372  0.5527 -1.1024
 7385SOL    HW223597   5.396   7.523   3.935  0.4120  2.7606 -0.1650
 7386SOL     OW23598   6.310   6.339   9.141  0.2971 -0.3889 -0.2858
 7386SOL    HW123599   6.394   6.379   9.116  0.9119 -1.0759  0.6145
 7386SOL    HW223600   6.246   6.410   9.131  1.1171  0.3877 -0.1686
 7387SOL     OW23601   1.557   1.385   8.856  0.1901  0.3125 -0.0217
 7387SOL    HW123602   1.531   1.337   8.777 -0.2882 -0.0255  0.3328
 7387SOL    HW223603   1.562   1.317   8.924  0.1496  0.6713  0.3394
 7388SOL     OW23604   3.832   4.306   5.780 -0.1363 -0.0029  0.2425
 7388SOL    HW123605   3.799   4.359   5.708  1.7411 -0.7395 -1.2345
 7388SOL    HW223606   3.786   4.222   5.772  0.8572 -0.4727 -0.8332
 7389SOL     OW23607   6.584   3.257   9.993  0.0142  0.4720  0.0789
 7389SOL    HW123608   6.555   3.231  10.081 -0.8457  0.2747 -0.2597
 7389SOL    HW223609   6.656   3.318  10.010 -0.2161  0.5343  0.9281
 7390SOL     OW23610   3.002   2.935  11.115 -0.8299 -0.5865 -0.2136
 7390SOL    HW123611   3.041   3.023  11.116  1.2262 -1.3626 -2.5028
 7390SOL    HW223612   3.074   2.877  11.140 -1.7011 -1.7672 -0.3798
 7391SOL     OW23613   0.178   7.081   1.811  0.3101 -0.0879  0.2547
 7391SOL    HW123614   0.156   7.031   1.732 -0.0861  1.5106 -0.6951
 7391SOL    HW223615   0.159   7.171   1.788  0.7068  0.4849  2.0257
 7392SOL     OW23616   1.318   7.614   2.744 -0.2334  0.5139 -0.0750
 7392SOL    HW123617   1.228   7.607   2.714 -0.4488  1.1376  0.4007
 7392SOL    HW223618   1.357   7.528   2.725 -1.1782 -0.0706  0.5428
 7393SOL     OW23619   2.864   3.622   9.727 -0.0291 -0.0532 -0.1540
 7393SOL    HW123620   2.840   3.539   9.686  0.1296 -0.0745 -0.2047
 7393SOL    HW223621   2.790   3.643   9.784 -1.0168  0.8314 -1.7152
 7394SOL     OW23622   0.976   3.677   1.424  0.3437 -0.1042 -0.5832
 7394SOL    HW123623   0.915   3.696   1.495  0.2106  1.0539 -0.9855
 7394SOL    HW223624   1.008   3.763   1.397  3.0879 -0.7367  0.4056
 7395SOL     OW23625   4.982   5.819   8.113  0.1211 -0.3180  0.5849
 7395SOL    HW123626   5.064   5.855   8.080  0.4951 -2.4912 -1.0644
 7395SOL    HW223627   4.931   5.895   8.140  1.9907  1.1891  0.0519
 7396SOL     OW23628   4.522   3.573   1.009 -0.0396  0.0952  0.3385
 7396SOL    HW123629   4.450   3.523   1.050  0.6800 -0.7034  0.6595
 7396SOL    HW223630   4.588   3.507   0.989  0.3621  0.7419 -0.5144
 7397SOL     OW23631   4.271   6.372  11.097 -0.5962  0.1144 -0.4172
 7397SOL    HW123632   4.364   6.393  11.089 -0.4389 -0.0355  0.7873
 7397SOL    HW223633   4.269   6.280  11.124 -1.0895  0.1690 -0.2468
 7398SOL     OW23634   5.869   3.704  10.341  0.2302 -0.0350 -0.4856
 7398SOL    HW123635   5.953   3.667  10.367 -0.9487 -1.2465  1.8393
 7398SOL    HW223636   5.811   3.629  10.330 -0.8968  0.8391 -0.7900
 7399SOL     OW23637   6.630   1.818   3.892 -0.0563  0.4204 -0.0444
 7399SOL    HW123638   6.702   1.804   3.830 -0.9126  1.4075 -1.3289
 7399SOL    HW223639   6.658   1.893   3.944 -0.4120  1.2249 -0.9862
 7400SOL     OW23640   6.195   1.321   0.239 -0.3597 -0.2761  0.2101
 7400SOL    HW123641   6.104   1.349   0.229 -0.4983 -0.8098 -0.0340
 7400SOL    HW223642   6.196   1.271   0.320  0.2246  1.7931  1.5746
 7401SOL     OW23643   3.535   1.768   4.844  0.0921 -0.2015  0.2552
 7401SOL    HW123644   3.535   1.724   4.758  1.6869 -0.6190  0.4221
 7401SOL    HW223645   3.621   1.746   4.881  0.8573  2.7699  0.5064
 7402SOL     OW23646   5.273   7.887   4.849  0.1123  0.2872 -0.7203
 7402SOL    HW123647   5.364   7.914   4.840  0.2455 -0.0974 -0.5500
 7402SOL    HW223648   5.269   7.802   4.807 -0.8442  1.5630 -3.4515
 7403SOL     OW23649   3.675   1.819   4.279  0.3584 -0.9790 -0.0100
 7403SOL    HW123650   3.709   1.816   4.190  0.3380 -0.4865 -0.0396
 7403SOL    HW223651   3.731   1.882   4.324  0.1974 -1.0201  0.2501
 7404SOL     OW23652   2.505   3.990  10.244  0.0832  0.3051 -0.1065
 7404SOL    HW123653   2.559   3.981  10.165  0.7130  0.0927  0.3442
 7404SOL    HW223654   2.417   4.007  10.210 -0.3175 -2.7943 -0.9764
 7405SOL     OW23655   1.663   1.372   3.125 -0.0640 -0.3167  0.3660
 7405SOL    HW123656   1.603   1.445   3.118  0.1312 -0.1036  0.8861
 7405SOL    HW223657   1.632   1.309   3.060  0.1584  0.4973 -0.5578
 7406SOL     OW23658   4.334   2.648   4.262 -0.5571  0.7815 -0.3713
 7406SOL    HW123659   4.302   2.567   4.224 -0.1123  0.1759  0.4987
 7406SOL    HW223660   4.259   2.707   4.264 -1.1840 -0.0244  0.0721
 7407SOL     OW23661   6.022   4.667  12.048  0.1631 -0.0558  0.5341
 7407SOL    HW123662   5.984   4.730  12.109  0.6844  1.0997 -0.2923
 7407SOL    HW223663   6.083   4.719  11.995  0.8411 -1.3196  0.0244
 7408SOL     OW23664   7.739   3.779   6.601  0.8259 -0.1780 -0.3594
 7408SOL    HW123665   7.819   3.734   6.629  1.3445 -0.4325 -2.0928
 7408SOL    HW223666   7.747   3.783   6.505 -2.0843 -1.8072 -0.7588
 7409SOL     OW23667   6.396   3.039   1.408  0.6030 -0.4613 -0.3166
 7409SOL    HW123668   6.384   3.133   1.395 -2.1863 -0.7791 -0.7460
 7409SOL    HW223669   6.322   2.999   1.362  2.1264 -2.9405 -0.8021
 7410SOL     OW23670   6.866   1.447  11.569  0.7071  0.8049  0.0456
 7410SOL    HW123671   6.899   1.358  11.566  0.1220  0.5910 -0.2703
 7410SOL    HW223672   6.808   1.454  11.493 -1.9817  0.3487  1.8849
 7411SOL     OW23673   5.830   2.433   7.187  0.3931  0.4022  0.0124
 7411SOL    HW123674   5.829   2.358   7.128 -0.1210  0.4073  0.0159
 7411SOL    HW223675   5.754   2.422   7.243  0.9457  0.3273  0.7715
 7412SOL     OW23676   6.708   0.742   2.112 -0.3283 -0.0078  0.0017
 7412SOL    HW123677   6.629   0.739   2.167  0.4340 -2.9376  1.1300
 7412SOL    HW223678   6.679   0.709   2.027 -0.7378  1.0613 -0.2944
 7413SOL     OW23679   3.362   7.620   0.984 -0.1107  0.1766  0.1929
 7413SOL    HW123680   3.282   7.620   0.933  0.8711 -0.0009 -1.4113
 7413SOL    HW223681   3.408   7.700   0.957  0.4162  0.0997  0.8321
 7414SOL     OW23682   4.232   6.394   6.262 -0.2938 -0.7034 -0.4165
 7414SOL    HW123683   4.272   6.425   6.344 -2.5733  1.8114 -0.1248
 7414SOL    HW223684   4.306   6.385   6.201  1.2797 -1.1950  1.4421
 7415SOL     OW23685   0.904   2.113  11.310 -0.9436 -0.8608  0.1223
 7415SOL    HW123686   0.911   2.052  11.237 -1.6209 -0.7677 -0.0244
 7415SOL    HW223687   0.959   2.187  11.285 -1.2152 -0.8050 -0.3223
 7416SOL     OW23688   5.947   5.550   3.966 -0.1308  0.1756 -0.5192
 7416SOL    HW123689   5.897   5.610   3.910 -0.2197  0.7767  0.1862
 7416SOL    HW223690   5.945   5.466   3.920 -1.0471  0.4125 -0.9203
 7417SOL     OW23691   6.031   3.588   9.999  0.0567 -0.3481  0.6134
 7417SOL    HW123692   6.000   3.678   9.990  0.4160 -0.4711 -3.8946
 7417SOL    HW223693   5.952   3.535   9.994  0.1121 -0.3390 -0.7779
 7418SOL     OW23694   6.500   7.802   6.485 -0.6364  0.1662  0.2328
 7418SOL    HW123695   6.406   7.783   6.482 -0.3097 -1.5549  0.3906
 7418SOL    HW223696   6.517   7.826   6.576 -0.5835 -1.4995  0.6864
 7419SOL     OW23697   0.595   1.175  12.212 -0.6073  0.4813 -0.2904
 7419SOL    HW123698   0.504   1.204  12.213 -0.2878  1.4891  0.6287
 7419SOL    HW223699   0.626   1.190  12.301  1.0198  1.9982 -1.0653
 7420SOL     OW23700   4.789   7.089   3.003 -0.6930 -0.4106 -0.3697
 7420SOL    HW123701   4.695   7.070   3.000 -0.4364 -2.0503  0.7117
 7420SOL    HW223702   4.827   7.016   3.052  1.1820  0.1291 -0.9234
 7421SOL     OW23703   6.773   4.613   1.379  0.0148 -0.4120  0.3021
 7421SOL    HW123704   6.762   4.646   1.468 -1.1500 -1.2550  0.4961
 7421SOL    HW223705   6.840   4.669   1.340  1.1671 -0.5833  1.9710
 7422SOL     OW23706   5.549   0.549  12.351 -0.9667 -0.8729  0.6361
 7422SOL    HW123707   5.597   0.511  12.277 -0.4931  1.2315 -0.1902
 7422SOL    HW223708   5.610   0.544  12.425  0.0298  0.4763 -0.0601
 7423SOL     OW23709   0.089   3.959   3.264 -0.1459  0.0017 -0.1876
 7423SOL    HW123710   0.041   4.041   3.250 -1.1890 -0.6134 -0.2970
 7423SOL    HW223711   0.154   3.957   3.194  0.0193  0.8249 -0.0721
 7424SOL     OW23712   0.096   5.670   8.235  0.3944  0.1250  0.4928
 7424SOL    HW123713   0.127   5.666   8.144  2.5229  2.3932  1.0026
 7424SOL    HW223714   0.131   5.590   8.275  2.5409  0.7710  0.0794
 7425SOL     OW23715   4.129   1.766   1.926 -0.6091 -0.3336  0.2757
 7425SOL    HW123716   4.184   1.697   1.889  0.2221  0.0314  0.8247
 7425SOL    HW223717   4.062   1.780   1.859  0.5535 -0.0590 -0.8694
 7426SOL     OW23718   4.551   4.647   9.931  0.7061  0.1979  0.2663
 7426SOL    HW123719   4.561   4.623  10.023  0.7090  0.2872  0.2891
 7426SOL    HW223720   4.464   4.616   9.907  0.6761  0.2421  0.3196
 7427SOL     OW23721   0.335   0.643   0.375 -0.3748 -0.1926  0.1302
 7427SOL    HW123722   0.321   0.615   0.285 -1.2051 -0.7634  0.4244
 7427SOL    HW223723   0.395   0.718   0.368  1.1137 -1.4031 -0.7514
 7428SOL     OW23724   2.928   7.801   4.709  0.0296  0.0493 -0.3757
 7428SOL    HW123725   2.865   7.783   4.639  0.2726 -2.2343 -0.1123
 7428SOL    HW223726   2.996   7.854   4.667  0.0531 -1.0772 -1.8460
 7429SOL     OW23727   4.346   4.871   1.169 -0.0773  0.5609 -0.2075
 7429SOL    HW123728   4.310   4.923   1.097 -0.8290  0.1887 -0.1103
 7429SOL    HW223729   4.417   4.821   1.128 -0.6723  0.1511 -0.7574
 7430SOL     OW23730   1.395   4.158  10.764  0.3014 -0.2203 -0.2820
 7430SOL    HW123731   1.328   4.166  10.696  1.0863  0.2500 -1.0092
 7430SOL    HW223732   1.381   4.071  10.801 -2.1059  0.6529  1.0758
 7431SOL     OW23733   6.340   2.652   4.980  0.0196  0.0946  0.1673
 7431SOL    HW123734   6.386   2.568   4.985 -0.5752 -0.2676 -0.2320
 7431SOL    HW223735   6.279   2.649   5.054  0.4275  0.4408  0.5168
 7432SOL     OW23736   7.547   0.656   4.010 -0.3116 -0.0100  0.1513
 7432SOL    HW123737   7.565   0.661   3.916 -0.4793 -0.1073  0.1138
 7432SOL    HW223738   7.453   0.639   4.016 -0.3177  0.0857  0.3387
 7433SOL     OW23739   7.266   1.732   0.331  0.2075 -0.0402  0.1206
 7433SOL    HW123740   7.337   1.758   0.272  0.0063  0.3460  0.0467
 7433SOL    HW223741   7.305   1.665   0.387  0.0130 -1.4825 -1.3740
 7434SOL     OW23742   1.377   5.985   7.860 -0.1539  0.2277  0.2211
 7434SOL    HW123743   1.373   5.900   7.816 -0.6094 -0.0957  0.8581
 7434SOL    HW223744   1.298   6.031   7.831 -0.8683 -0.2887  1.2599
 7435SOL     OW23745   6.370   0.748   9.238 -0.0568  0.7440 -0.0616
 7435SOL    HW123746   6.345   0.694   9.162 -0.3981  1.7013 -0.6398
 7435SOL    HW223747   6.380   0.685   9.309  1.1896 -0.3076 -1.1059
 7436SOL     OW23748   0.339   0.981   5.262 -0.2146 -0.6485  0.0398
 7436SOL    HW123749   0.418   0.926   5.263 -0.7758 -1.5243  1.9055
 7436SOL    HW223750   0.361   1.055   5.319 -0.4585 -0.4548 -0.1145
 7437SOL     OW23751   2.756   7.506   0.451  0.3267 -0.2632  0.2692
 7437SOL    HW123752   2.776   7.469   0.537 -0.2197 -0.4192  0.3335
 7437SOL    HW223753   2.819   7.465   0.392 -0.0932 -1.1003  0.3871
 7438SOL     OW23754   3.409   3.594   1.073 -0.3278 -0.1523 -0.0337
 7438SOL    HW123755   3.343   3.636   1.016  0.2399  2.6840  1.2214
 7438SOL    HW223756   3.363   3.580   1.156  0.0350 -0.2993  0.1421
 7439SOL     OW23757   4.027   3.975  10.303  0.0778 -0.3276 -0.4453
 7439SOL    HW123758   3.972   3.986  10.225  0.9161  0.1574 -0.9880
 7439SOL    HW223759   4.110   4.015  10.279 -0.2457  1.5696  1.3834
 7440SOL     OW23760   2.726   5.352   7.474 -0.4203  0.6793 -0.0405
 7440SOL    HW123761   2.715   5.271   7.525  1.1273  0.5742  0.1757
 7440SOL    HW223762   2.791   5.402   7.523  1.7292  0.2525 -2.2486
 7441SOL     OW23763   6.967   5.900   7.923 -0.2725 -0.2949 -0.1996
 7441SOL    HW123764   6.884   5.944   7.902  1.1778  2.8382  0.0540
 7441SOL    HW223765   7.023   5.916   7.847  0.7054 -0.6876  0.4188
 7442SOL     OW23766   3.267   0.076   7.376 -0.2972  0.3389 -0.0446
 7442SOL    HW123767   3.275  -0.009   7.333 -2.4413  0.5126 -0.9094
 7442SOL    HW223768   3.228   0.057   7.461  3.3220  0.0732  1.7650
 7443SOL     OW23769   3.298   4.984   6.541 -0.3297  0.0085  0.3584
 7443SOL    HW123770   3.328   5.074   6.555  1.6836 -0.3372 -1.2394
 7443SOL    HW223771   3.313   4.968   6.448 -1.2025 -1.8167  0.4858
 7444SOL     OW23772   3.855   3.741  11.884 -0.3748 -0.2647 -0.2828
 7444SOL    HW123773   3.787   3.790  11.930 -0.9678 -1.5622  0.2750
 7444SOL    HW223774   3.811   3.706  11.807 -0.0048 -0.0789 -0.5802
 7445SOL     OW23775   0.777   3.152   1.016 -0.2971 -0.5207  0.4030
 7445SOL    HW123776   0.722   3.227   1.037  0.1977 -0.2808  0.8656
 7445SOL    HW223777   0.829   3.137   1.095  0.3273 -0.7178 -0.0358
 7446SOL     OW23778   3.632   4.485   1.561  0.4046 -0.0115  0.0875
 7446SOL    HW123779   3.647   4.393   1.582  1.4348 -0.0524 -0.7361
 7446SOL    HW223780   3.720   4.523   1.556 -0.0128  1.2094  1.1599
 7447SOL     OW23781   5.784   5.599   8.432 -0.1880 -0.2276  0.1713
 7447SOL    HW123782   5.845   5.545   8.381  0.4825  0.5923  0.0943
 7447SOL    HW223783   5.817   5.595   8.521  0.4170  0.8027  0.0063
 7448SOL     OW23784   2.761   3.475   6.765  0.1286  0.1091  0.0588
 7448SOL    HW123785   2.847   3.505   6.795  0.0120  0.8094 -0.2985
 7448SOL    HW223786   2.765   3.483   6.670 -0.0366 -0.6752 -0.0222
 7449SOL     OW23787   6.368   5.174   7.444 -0.1623  0.2274  0.3074
 7449SOL    HW123788   6.376   5.197   7.537 -2.3882  0.8468  0.3965
 7449SOL    HW223789   6.419   5.094   7.435  0.2509  0.2609  2.0211
 7450SOL     OW23790   7.275   1.145  10.346 -0.8656 -0.0607  0.4081
 7450SOL    HW123791   7.342   1.194  10.299 -1.2979  1.0738  0.9429
 7450SOL    HW223792   7.221   1.106  10.277 -0.5537  0.2752 -0.0299
 7451SOL     OW23793   7.416   5.823   4.181 -0.2506 -0.1519  0.1322
 7451SOL    HW123794   7.422   5.749   4.121 -1.4503  0.0471 -0.2587
 7451SOL    HW223795   7.409   5.783   4.268 -1.1806 -0.5218 -0.1021
 7452SOL     OW23796   7.674   1.852   3.606  0.1749  0.0580 -0.4931
 7452SOL    HW123797   7.589   1.865   3.649  0.1665 -1.7408  0.1134
 7452SOL    HW223798   7.727   1.925   3.638 -0.8997  0.7570 -0.2406
 7453SOL     OW23799   4.878   5.173  12.169 -0.2265 -0.5195 -0.0642
 7453SOL    HW123800   4.803   5.127  12.206  0.3601 -0.4315  1.2913
 7453SOL    HW223801   4.840   5.248  12.124 -1.0112 -0.9369 -0.1209
 7454SOL     OW23802   2.727   7.647   6.010 -0.0065  0.2117  0.3501
 7454SOL    HW123803   2.745   7.738   6.033 -0.3152 -0.3347  3.0808
 7454SOL    HW223804   2.654   7.652   5.947  0.2120  1.8269  0.1903
 7455SOL     OW23805   0.615   4.249  11.389  0.2524 -0.2403 -0.2052
 7455SOL    HW123806   0.696   4.199  11.396 -0.8481 -2.0070  0.5607
 7455SOL    HW223807   0.598   4.255  11.294 -0.4027 -2.8118 -0.3308
 7456SOL     OW23808   0.219   0.898  10.577 -0.3640  0.1173  0.4243
 7456SOL    HW123809   0.225   0.884  10.482 -0.1963  1.7693  0.1575
 7456SOL    HW223810   0.163   0.828  10.608 -0.4556 -0.4383 -0.9085
 7457SOL     OW23811   0.778   1.003   1.475  0.4267 -0.0625  0.3575
 7457SOL    HW123812   0.817   0.920   1.448 -1.4178 -0.7461 -0.3274
 7457SOL    HW223813   0.818   1.068   1.418  0.8750 -0.6658 -0.0298
 7458SOL     OW23814   0.492   1.575   0.474 -0.5856 -0.4534 -0.3295
 7458SOL    HW123815   0.422   1.563   0.409  0.5231 -0.2932 -1.6028
 7458SOL    HW223816   0.569   1.596   0.422  0.7298 -1.9213  0.9393
 7459SOL     OW23817   6.042   2.089   2.689  0.7265 -0.3386 -0.2943
 7459SOL    HW123818   6.129   2.077   2.650  0.4493 -2.0356 -0.4730
 7459SOL    HW223819   5.988   2.020   2.650 -0.0698 -0.8639  1.6030
 7460SOL     OW23820   0.405   3.977   6.033 -0.7284  0.6300 -0.2082
 7460SOL    HW123821   0.461   3.908   6.069 -1.4023  1.3863  2.5277
 7460SOL    HW223822   0.466   4.035   5.986  0.7210  0.9719  1.9608
 7461SOL     OW23823   2.238   6.376   7.748 -0.3097 -0.1774  0.0551
 7461SOL    HW123824   2.225   6.292   7.704  2.5645 -1.2567  1.0435
 7461SOL    HW223825   2.257   6.437   7.677  0.0241 -0.9291 -0.5185
 7462SOL     OW23826   1.975   4.601  11.295  0.3242 -0.2097 -0.1235
 7462SOL    HW123827   1.941   4.650  11.370 -0.0645  0.2295 -0.5748
 7462SOL    HW223828   1.904   4.605  11.230  1.8915  2.3938 -1.8430
 7463SOL     OW23829   7.420   6.113  10.791  0.2676  0.2734 -0.0880
 7463SOL    HW123830   7.430   6.071  10.705 -0.0556 -1.1584  0.5572
 7463SOL    HW223831   7.507   6.150  10.809  0.5606 -0.1003 -0.6852
 7464SOL     OW23832   0.545   5.892  10.692 -0.2052 -0.0600 -0.0135
 7464SOL    HW123833   0.533   5.848  10.776  0.3926 -1.5555 -0.6754
 7464SOL    HW223834   0.598   5.969  10.713  0.1373 -0.5406  0.9476
 7465SOL     OW23835   3.732   6.920   1.450  0.2777  0.5198 -0.5767
 7465SOL    HW123836   3.820   6.900   1.416  0.9669 -0.1288  1.4185
 7465SOL    HW223837   3.728   6.874   1.534 -1.8484  0.8631 -0.4367
 7466SOL     OW23838   7.056   4.100   6.287  0.3416  0.0594  0.3132
 7466SOL    HW123839   7.133   4.106   6.231 -0.9159  0.2440 -1.4897
 7466SOL    HW223840   7.015   4.186   6.282 -0.7797 -0.4668 -0.0104
 7467SOL     OW23841   5.858   1.257   9.344 -0.2040  0.4354 -0.1717
 7467SOL    HW123842   5.858   1.248   9.439 -1.0999  2.3425  0.0527
 7467SOL    HW223843   5.880   1.349   9.328 -3.9001  1.2715 -1.5807
 7468SOL     OW23844   5.924   2.832   5.248  0.6358  0.1368  0.3855
 7468SOL    HW123845   5.938   2.902   5.184 -0.4831  0.3732  0.3746
 7468SOL    HW223846   5.859   2.868   5.309 -0.6438 -1.2015 -0.1263
 7469SOL     OW23847   3.838   7.222   1.281  0.0307 -0.0193  0.1377
 7469SOL    HW123848   3.750   7.185   1.274  0.1731 -0.4916  0.7135
 7469SOL    HW223849   3.825   7.307   1.323 -0.1189 -0.2269  0.5142
 7470SOL     OW23850   5.859   7.157   2.464 -0.7988  0.3368  0.2566
 7470SOL    HW123851   5.846   7.147   2.559  1.1929  1.5349  0.7154
 7470SOL    HW223852   5.892   7.072   2.436 -1.4592 -0.0485  0.6059
 7471SOL     OW23853   6.257   6.992   2.154 -0.2177 -0.1537 -0.3224
 7471SOL    HW123854   6.221   7.049   2.086 -0.1267  0.1200 -0.1471
 7471SOL    HW223855   6.352   6.997   2.141 -0.2286 -0.6655 -0.6200
 7472SOL     OW23856   6.012   6.623  10.419  0.3333 -0.2094 -0.2290
 7472SOL    HW123857   6.069   6.598  10.346  0.0617  0.5914 -0.7264
 7472SOL    HW223858   6.044   6.708  10.446 -0.7325  0.3424 -0.6463
 7473SOL     OW23859   1.551   1.606  10.918  0.5178 -0.3454  0.3646
 7473SOL    HW123860   1.470   1.627  10.963 -1.2680 -3.7773 -0.8810
 7473SOL    HW223861   1.558   1.671  10.848 -0.0645  1.1314  1.6248
 7474SOL     OW23862   5.060   4.377   5.586  0.2717 -0.1675 -0.3533
 7474SOL    HW123863   5.045   4.411   5.498 -0.3185  0.9210  0.1403
 7474SOL    HW223864   4.982   4.323   5.605 -0.1075  0.4472 -0.1205
 7475SOL     OW23865   4.160   6.490   5.818  0.0133  0.7797 -0.0058
 7475SOL    HW123866   4.214   6.566   5.797  0.3283  0.8683  1.0440
 7475SOL    HW223867   4.142   6.449   5.734  3.2059 -0.2735 -0.3290
 7476SOL     OW23868   1.315   6.647   8.741 -0.0418 -0.5405 -0.0359
 7476SOL    HW123869   1.273   6.708   8.680 -0.3528 -0.4372  0.2756
 7476SOL    HW223870   1.336   6.701   8.818 -2.2738 -1.2380  1.1385
 7477SOL     OW23871   7.444   7.859   9.069  0.3997 -0.2052  0.1569
 7477SOL    HW123872   7.430   7.837   8.977  1.7267 -0.8698  0.0770
 7477SOL    HW223873   7.357   7.864   9.107 -0.1948  0.6020 -1.2483
 7478SOL     OW23874   0.668   3.976   5.854 -0.1456 -0.5667 -0.1611
 7478SOL    HW123875   0.755   3.992   5.889 -0.3700 -0.3586  0.3029
 7478SOL    HW223876   0.655   3.882   5.863 -0.3680 -0.4580  0.7031
 7479SOL     OW23877   0.884   6.623   1.890 -0.8824  0.3238  0.3679
 7479SOL    HW123878   0.953   6.597   1.951 -0.0380 -0.1002 -0.7441
 7479SOL    HW223879   0.806   6.578   1.922 -0.4061 -0.0799  0.9925
 7480SOL     OW23880   7.884   7.886  10.094 -0.0148 -0.0526  0.5880
 7480SOL    HW123881   7.825   7.904  10.021  0.1392 -0.0501  0.4639
 7480SOL    HW223882   7.859   7.949  10.162  0.8216  0.9468 -0.0076
 7481SOL     OW23883   6.403   7.907   5.972 -0.0269  0.1101  0.5109
 7481SOL    HW123884   6.404   7.831   5.915  1.0873  1.0876 -0.8415
 7481SOL    HW223885   6.347   7.882   6.045 -0.9489 -1.4136 -0.6766
 7482SOL     OW23886   0.190   0.517   3.472  0.4181 -0.0252 -0.5253
 7482SOL    HW123887   0.272   0.505   3.424  0.7182  0.2996 -0.0973
 7482SOL    HW223888   0.216   0.519   3.564 -0.1515 -0.6219 -0.3416
 7483SOL     OW23889   3.261   4.891   2.961 -0.0978  0.6227  0.2385
 7483SOL    HW123890   3.237   4.799   2.972 -1.4932  1.1043  1.5720
 7483SOL    HW223891   3.312   4.913   3.039 -1.8122  1.5593  1.1533
 7484SOL     OW23892   2.697   5.145   3.959 -0.1403 -0.1046 -0.3985
 7484SOL    HW123893   2.616   5.094   3.961 -1.2004  1.4520 -0.9019
 7484SOL    HW223894   2.682   5.215   4.022  0.2446  0.9826 -1.4681
 7485SOL     OW23895   0.648   0.864   5.845  0.5258  0.0791  0.2362
 7485SOL    HW123896   0.615   0.932   5.904  0.1414  0.1155 -0.0186
 7485SOL    HW223897   0.693   0.802   5.902  1.3615  0.8314  0.4143
 7486SOL     OW23898   7.821   3.434   7.971 -0.6455  0.2851 -0.6400
 7486SOL    HW123899   7.835   3.523   7.940  2.6818  0.0988 -0.0356
 7486SOL    HW223900   7.883   3.381   7.921 -1.4684 -1.4640  0.0869
 7487SOL     OW23901   0.073   0.699   6.763 -0.2014 -0.1619 -0.4467
 7487SOL    HW123902   0.006   0.673   6.700 -0.7927  2.7262 -1.1406
 7487SOL    HW223903   0.073   0.628   6.827 -3.8691 -0.3902 -0.4547
 7488SOL     OW23904   7.598   1.503   7.822 -0.5380  0.4922  0.1260
 7488SOL    HW123905   7.633   1.481   7.736 -0.6638 -0.4820  0.3163
 7488SOL    HW223906   7.645   1.582   7.848 -0.8335  1.0727 -1.0316
 7489SOL     OW23907   3.143   1.278   8.285  0.0573 -0.1887 -0.1471
 7489SOL    HW123908   3.124   1.256   8.376  0.2161 -1.4247 -0.3938
 7489SOL    HW223909   3.062   1.316   8.252  0.5853  2.1919  1.0305
 7490SOL     OW23910   0.085   4.236   2.933 -0.0519 -0.3407  0.6840
 7490SOL    HW123911   0.046   4.168   2.989 -0.7757 -1.4915 -1.1032
 7490SOL    HW223912   0.065   4.318   2.978 -0.6892 -1.1942  2.0478
 7491SOL     OW23913   0.152   2.379   6.175  0.4631  0.4730 -0.1879
 7491SOL    HW123914   0.135   2.455   6.230 -0.0295  0.2795 -0.0617
 7491SOL    HW223915   0.066   2.338   6.164  0.9803 -1.1758  1.3946
 7492SOL     OW23916   1.312   1.354  12.328 -0.3127 -1.0223  0.1320
 7492SOL    HW123917   1.341   1.369  12.238  0.3350 -0.7195  0.3840
 7492SOL    HW223918   1.355   1.272  12.354 -0.7527 -1.2789  0.0637
 7493SOL     OW23919   7.282   6.967   8.158  0.0794  0.3112  0.3306
 7493SOL    HW123920   7.340   6.932   8.090 -0.1114 -0.0781  0.3662
 7493SOL    HW223921   7.319   6.935   8.240 -1.7152 -2.2806  0.2302
 7494SOL     OW23922   2.668   4.499   2.617  0.2124 -0.0972  0.7230
 7494SOL    HW123923   2.695   4.419   2.571  0.4253 -0.0667  0.7940
 7494SOL    HW223924   2.696   4.485   2.707  1.8665  0.8048  0.3885
 7495SOL     OW23925   6.568   2.668   8.213  0.5821  0.5084 -0.3974
 7495SOL    HW123926   6.621   2.590   8.226  0.0348  0.0070 -1.1047
 7495SOL    HW223927   6.538   2.692   8.301 -1.2881 -1.5491 -0.3768
 7496SOL     OW23928   1.334   0.726   2.030  0.6741 -0.5449 -0.0760
 7496SOL    HW123929   1.253   0.681   2.004  0.7393 -1.2796  0.9291
 7496SOL    HW223930   1.308   0.816   2.046  0.4900 -0.2370 -1.9153
 7497SOL     OW23931   6.942   1.086   8.921  0.3247 -0.1789 -0.4661
 7497SOL    HW123932   6.910   1.174   8.939 -1.0921 -0.1307 -2.8187
 7497SOL    HW223933   6.871   1.029   8.948  1.8054 -0.8172  2.4457
 7498SOL     OW23934   1.290   1.120   9.944 -0.3543  0.3093 -0.1968
 7498SOL    HW123935   1.200   1.133   9.971 -0.5854  0.2105 -0.8926
 7498SOL    HW223936   1.343   1.155  10.016 -0.8416 -3.6435  2.3690
 7499SOL     OW23937   0.965   4.884   2.728  0.3429  0.3211 -0.0659
 7499SOL    HW123938   0.906   4.954   2.756  0.3010 -0.2879  1.5300
 7499SOL    HW223939   1.047   4.903   2.773  0.6649 -0.0492 -0.4936
 7500SOL     OW23940   3.423   5.904   6.101  0.0886  0.3027 -0.2331
 7500SOL    HW123941   3.445   5.819   6.062  0.3335  0.5930 -0.7380
 7500SOL    HW223942   3.455   5.968   6.038 -0.5930  0.7652 -0.1152
 7501SOL     OW23943   0.639   2.886   7.567  0.3025  0.0639 -0.2381
 7501SOL    HW123944   0.710   2.940   7.601 -1.0547  1.1635  1.0119
 7501SOL    HW223945   0.580   2.948   7.525 -1.5480 -0.2637  1.6613
 7502SOL     OW23946   0.625   2.408   1.396 -0.2157  0.5318 -0.3252
 7502SOL    HW123947   0.697   2.361   1.439  0.6582  0.4508 -1.8204
 7502SOL    HW223948   0.556   2.342   1.385  0.1181  0.1854 -0.3518
 7503SOL     OW23949   5.410   0.306   2.063 -1.1491 -0.5651  0.4400
 7503SOL    HW123950   5.442   0.362   1.992  2.1891 -0.4947  1.8425
 7503SOL    HW223951   5.424   0.356   2.143 -2.2247 -1.7128  1.3937
 7504SOL     OW23952   6.870   5.080   9.834  0.3479 -0.3364  0.2511
 7504SOL    HW123953   6.810   5.071   9.760  1.6032  0.5161 -0.9128
 7504SOL    HW223954   6.849   5.005   9.891 -0.0101 -1.5756 -1.4228
 7505SOL     OW23955   5.909   6.338   9.101  0.4198 -0.2169 -0.3116
 7505SOL    HW123956   5.823   6.305   9.129  0.4655 -0.9585 -1.0125
 7505SOL    HW223957   5.970   6.307   9.168  0.2730 -0.4613 -0.2898
 7506SOL     OW23958   1.264   7.105   2.979 -0.1472  0.4377  0.2841
 7506SOL    HW123959   1.179   7.149   2.974 -0.0072  0.5477 -1.6554
 7506SOL    HW223960   1.247   7.025   3.029 -1.0214  1.2413  1.3188
 7507SOL     OW23961   7.017   7.549   8.446 -0.3618  0.4762  0.1891
 7507SOL    HW123962   6.998   7.456   8.432 -2.4970  0.9361 -0.2061
 7507SOL    HW223963   6.997   7.590   8.362 -0.1850  1.4172  0.5970
 7508SOL     OW23964   1.819   3.753   9.762  0.4199  0.2506 -0.3631
 7508SOL    HW123965   1.905   3.714   9.780  0.8288  1.6258  0.8627
 7508SOL    HW223966   1.832   3.803   9.682  0.8844  0.7698  0.0282
 7509SOL     OW23967   1.611   0.922  12.202 -0.2810  0.2076  0.1541
 7509SOL    HW123968   1.576   0.998  12.156  0.2059 -0.1384 -0.7924
 7509SOL    HW223969   1.701   0.914  12.172 -0.2131 -0.5333  0.5267
 7510SOL     OW23970   1.848   4.437   6.338 -0.1230 -0.1401 -0.4224
 7510SOL    HW123971   1.841   4.438   6.243  0.8403  0.0655 -0.4935
 7510SOL    HW223972   1.886   4.352   6.359  1.0363  0.3934 -0.3238
 7511SOL     OW23973   7.515   7.604   2.772  0.0524  0.2741  0.1950
 7511SOL    HW123974   7.464   7.567   2.844  0.4379 -0.0966  0.2780
 7511SOL    HW223975   7.606   7.585   2.794  0.2829  1.5677  0.4033
 7512SOL     OW23976   6.926   0.616  12.087  0.0966 -0.2965  0.2132
 7512SOL    HW123977   6.987   0.687  12.103  2.2440 -1.9950  0.0383
 7512SOL    HW223978   6.934   0.596  11.994  1.1166 -2.0532  0.6198
 7513SOL     OW23979   7.826   7.499   8.196  0.1346 -0.3707 -0.0591
 7513SOL    HW123980   7.785   7.478   8.113 -1.1776 -1.0849  0.7441
 7513SOL    HW223981   7.792   7.435   8.258  1.4493 -0.1570  0.9484
 7514SOL     OW23982   5.488   2.992   7.599 -0.5611 -0.1815  0.0708
 7514SOL    HW123983   5.577   2.982   7.566  0.1154  0.0278  1.7196
 7514SOL    HW223984   5.474   3.086   7.605 -0.3473 -0.2031  1.1377
 7515SOL     OW23985   6.655   6.359   5.002  0.2167 -0.0285 -0.2280
 7515SOL    HW123986   6.735   6.412   5.004 -0.0129  0.4227 -1.7671
 7515SOL    HW223987   6.639   6.343   4.909 -0.0894 -2.2747  0.1546
 7516SOL     OW23988   2.432   6.668   9.465 -0.4912 -0.4820  0.3605
 7516SOL    HW123989   2.502   6.728   9.491 -0.5211 -0.8746  1.3869
 7516SOL    HW223990   2.377   6.660   9.543 -0.6902 -1.5678  0.1246
 7517SOL     OW23991   3.450   2.608   4.368 -0.7486  0.6782  0.0459
 7517SOL    HW123992   3.511   2.625   4.439  1.1560  0.4850 -1.4569
 7517SOL    HW223993   3.479   2.666   4.297 -3.3858  1.8559 -0.1944
 7518SOL     OW23994   0.947   0.818   9.648  0.2697  0.1513 -0.1446
 7518SOL    HW123995   0.931   0.894   9.704  0.4901  0.3650 -0.3656
 7518SOL    HW223996   1.043   0.810   9.647  0.2350 -0.3526  0.1694
 7519SOL     OW23997   0.125   4.171   5.788 -0.4256 -0.0389 -0.5353
 7519SOL    HW123998   0.163   4.180   5.701  2.9542 -1.3289  0.6400
 7519SOL    HW223999   0.146   4.081   5.815 -1.5099  0.2551  1.5805
 7520SOL     OW24000   2.090   4.034   3.373  0.3477  0.4675  0.3212
 7520SOL    HW124001   2.058   3.971   3.309 -0.4772  1.5542 -0.3568
 7520SOL    HW224002   2.108   4.113   3.322  1.8544  0.6395  1.0729
 7521SOL     OW24003   7.023   3.468   1.683 -0.1862 -0.3688  0.1320
 7521SOL    HW124004   6.957   3.504   1.624  0.1849 -0.3849 -0.2986
 7521SOL    HW224005   6.974   3.439   1.759 -0.6326 -0.0503 -0.0321
 7522SOL     OW24006   3.758   7.567   9.693 -0.1632  0.7460  0.5524
 7522SOL    HW124007   3.807   7.645   9.717  2.5812 -0.4273 -0.7837
 7522SOL    HW224008   3.775   7.506   9.766 -1.1246  0.9011  0.9167
 7523SOL     OW24009   4.729   0.151   2.148 -0.1544 -0.0550 -0.0901
 7523SOL    HW124010   4.814   0.138   2.106  0.0429 -1.3167  0.6252
 7523SOL    HW224011   4.681   0.071   2.130 -0.6596  0.0554  0.7084
 7524SOL     OW24012   0.573   4.936   1.595 -0.3980 -0.1437 -0.1677
 7524SOL    HW124013   0.522   4.911   1.518  0.0428  2.5437 -1.4186
 7524SOL    HW224014   0.655   4.970   1.561 -0.0257  0.7689  1.5102
 7525SOL     OW24015   7.259   4.076   7.432 -0.1796 -0.2630 -0.5207
 7525SOL    HW124016   7.327   4.034   7.378  0.2324  0.8897 -0.9365
 7525SOL    HW224017   7.208   4.129   7.370  1.5065  2.6674  0.3779
 7526SOL     OW24018   5.150   3.057   3.819 -0.2791  0.2733  0.6324
 7526SOL    HW124019   5.217   3.089   3.880  0.6344 -0.4727  0.0555
 7526SOL    HW224020   5.089   3.009   3.874 -0.2721  0.8317  1.1508
 7527SOL     OW24021   6.120   1.570  10.185 -0.3795 -0.0983 -0.2007
 7527SOL    HW124022   6.169   1.529  10.114  0.6774  0.8060 -0.0172
 7527SOL    HW224023   6.092   1.654  10.149  0.6397  0.6070  0.6296
 7528SOL     OW24024   5.545   3.770  10.819 -0.2746 -0.2669 -0.3099
 7528SOL    HW124025   5.523   3.684  10.856 -1.1418 -0.2197 -0.6982
 7528SOL    HW224026   5.553   3.827  10.895 -1.7393 -0.2396 -0.1521
 7529SOL     OW24027   3.331   0.188   2.257  0.2652 -0.0201 -0.2092
 7529SOL    HW124028   3.349   0.280   2.239 -0.5641  0.0425 -0.8058
 7529SOL    HW224029   3.416   0.144   2.248  0.6973  0.7115  0.2790
 7530SOL     OW24030   0.442   0.435   7.077 -0.4518  0.0768 -0.0825
 7530SOL    HW124031   0.528   0.394   7.077 -0.4888 -0.0022 -0.4252
 7530SOL    HW224032   0.439   0.487   6.997 -1.7813 -2.1933 -1.6247
 7531SOL     OW24033   5.131   3.781   3.645  0.6286  0.5293  0.0774
 7531SOL    HW124034   5.139   3.779   3.549 -0.4855  2.0945 -0.0859
 7531SOL    HW224035   5.192   3.714   3.675  0.9870 -0.0192 -1.7279
 7532SOL     OW24036   6.414   5.146   7.720  0.2438  0.0858 -0.6834
 7532SOL    HW124037   6.437   5.234   7.752 -1.2534  0.0150  0.7273
 7532SOL    HW224038   6.498   5.100   7.714  0.8669  1.0028  0.5044
 7533SOL     OW24039   3.891   5.704  11.380  0.1536  0.1967 -0.1168
 7533SOL    HW124040   3.842   5.645  11.437 -2.4134  3.8184  1.8744
 7533SOL    HW224041   3.868   5.676  11.291 -0.8860 -1.7737  0.7068
 7534SOL     OW24042   4.337   1.109   7.930 -0.5720  0.0869 -0.1775
 7534SOL    HW124043   4.362   1.147   7.846 -0.6589 -1.1121 -0.7733
 7534SOL    HW224044   4.348   1.015   7.917 -1.1044 -0.1478  0.9873
 7535SOL     OW24045   6.875   4.752   8.206 -0.4709 -0.5184  0.2870
 7535SOL    HW124046   6.923   4.790   8.280  0.8825 -1.2901 -0.1624
 7535SOL    HW224047   6.865   4.824   8.144  0.3384 -0.3940  0.2873
 7536SOL     OW24048   6.910   0.948  10.016  0.1812  0.3148  0.0385
 7536SOL    HW124049   6.965   0.873   9.992 -1.7510 -0.8935 -0.8993
 7536SOL    HW224050   6.872   0.977   9.932 -0.9111  0.8578  0.7012
 7537SOL     OW24051   4.334   5.906   2.786 -0.0991 -0.2640 -0.7748
 7537SOL    HW124052   4.308   5.947   2.704 -1.0851  1.1482  0.2048
 7537SOL    HW224053   4.257   5.856   2.814 -0.2309  0.2868 -0.1095
 7538SOL     OW24054   0.074   7.782   0.778  0.6672 -0.0402 -0.8384
 7538SOL    HW124055   0.097   7.874   0.765  0.0625  0.5997  2.0067
 7538SOL    HW224056   0.034   7.756   0.695  1.0070  2.1809 -1.7911
 7539SOL     OW24057   3.432   4.936  11.832  0.7083 -0.5396 -0.1244
 7539SOL    HW124058   3.470   4.861  11.879 -0.2784 -1.1679 -0.2977
 7539SOL    HW224059   3.346   4.905  11.803  0.6056  0.4057 -0.8813
 7540SOL     OW24060   2.166   3.496  10.668 -0.6844 -0.1080  0.1705
 7540SOL    HW124061   2.147   3.534  10.754 -2.7427  0.1521 -0.3467
 7540SOL    HW224062   2.254   3.527  10.647  0.0933 -0.6046  2.3872
 7541SOL     OW24063   3.489   2.141  10.075  0.2491 -0.3052  0.2087
 7541SOL    HW124064   3.495   2.113   9.984  0.0616  0.1949  0.0387
 7541SOL    HW224065   3.441   2.224  10.071  0.8444  0.0736  0.6817
 7542SOL     OW24066   5.061   2.223   2.304 -0.6235 -0.2694 -0.2308
 7542SOL    HW124067   5.134   2.249   2.360  0.0796 -0.8803 -0.8316
 7542SOL    HW224068   5.013   2.159   2.356 -0.4270 -0.2597 -0.0342
 7543SOL     OW24069   2.025   0.188   1.118  0.1188  0.0694  0.3412
 7543SOL    HW124070   2.071   0.265   1.086 -1.0534  0.3774 -0.6990
 7543SOL    HW224071   2.075   0.159   1.194  1.5293  0.8611 -0.2520
 7544SOL     OW24072   4.022   2.528   4.253  0.4730 -0.2852 -0.0474
 7544SOL    HW124073   3.959   2.540   4.182  1.5691  3.1979 -0.6028
 7544SOL    HW224074   4.101   2.495   4.210  0.5806  0.1578 -0.1990
 7545SOL     OW24075   2.185   1.927   6.716  0.3170  0.0159 -0.0756
 7545SOL    HW124076   2.237   1.874   6.776 -1.3542 -0.8048  0.7055
 7545SOL    HW224077   2.156   2.002   6.769  0.2586  0.1920 -0.3516
 7546SOL     OW24078   0.175   6.593  11.323 -0.2393 -0.4258 -0.4485
 7546SOL    HW124079   0.099   6.555  11.368 -0.2514 -1.0669 -0.9988
 7546SOL    HW224080   0.248   6.537  11.349 -0.0005  0.0062 -0.1697
 7547SOL     OW24081   0.060   6.788   4.872  0.0082  0.3582 -0.0952
 7547SOL    HW124082   0.110   6.861   4.835 -1.3175  1.4525  0.1748
 7547SOL    HW224083   0.124   6.738   4.922  1.0042  1.2084 -0.4832
 7548SOL     OW24084   7.687   6.459   8.720 -0.5147  0.8041 -0.3574
 7548SOL    HW124085   7.756   6.393   8.724 -0.8361  0.5108  1.7118
 7548SOL    HW224086   7.734   6.542   8.717  0.0175  0.6492  1.9140
 7549SOL     OW24087   3.621   1.248   5.644 -0.0319 -0.1587 -0.0509
 7549SOL    HW124088   3.682   1.180   5.672 -0.7203 -0.2824  1.2172
 7549SOL    HW224089   3.538   1.224   5.685 -0.2916  1.4399  0.4016
 7550SOL     OW24090   2.856   7.250   7.657  0.5727  0.5543 -0.4292
 7550SOL    HW124091   2.918   7.208   7.598 -1.0149 -0.7902 -1.2393
 7550SOL    HW224092   2.895   7.240   7.744  2.2196  1.2012 -1.0676
 7551SOL     OW24093   3.426   2.635   0.516 -0.2260  0.2353 -0.0724
 7551SOL    HW124094   3.347   2.581   0.507 -0.4833  0.6687 -0.4747
 7551SOL    HW224095   3.400   2.721   0.484  0.1208  0.6640  0.7503
 7552SOL     OW24096   7.568   1.029   8.850  0.2303  0.5159  0.1134
 7552SOL    HW124097   7.641   1.043   8.790 -0.6758  0.1661 -1.1064
 7552SOL    HW224098   7.534   1.116   8.867  1.7226  0.8379  1.7787
 7553SOL     OW24099   4.054   0.785   3.514 -0.2847  0.2259  0.3080
 7553SOL    HW124100   4.077   0.707   3.463  0.0183  0.7790 -0.4256
 7553SOL    HW224101   4.136   0.813   3.555 -0.3709  0.2102  0.4905
 7554SOL     OW24102   6.293   6.916  10.037  0.2553 -0.0904 -0.5289
 7554SOL    HW124103   6.337   6.882   9.959  1.3263 -0.8289  0.3803
 7554SOL    HW224104   6.318   6.857  10.107 -2.1487 -0.5140  0.0780
 7555SOL     OW24105   5.515   1.761   0.084  0.0158  0.0557 -0.1809
 7555SOL    HW124106   5.444   1.747   0.146 -0.2503 -0.1365 -0.5285
 7555SOL    HW224107   5.490   1.841   0.038  0.5587  0.5985  0.4352
 7556SOL     OW24108   5.344   4.030   3.241  0.0233 -0.0580 -0.2257
 7556SOL    HW124109   5.306   3.976   3.310 -2.0869  1.4133 -0.1195
 7556SOL    HW224110   5.280   4.101   3.229  0.2043 -0.3495 -3.8168
 7557SOL     OW24111   2.819   6.995  10.002 -0.5583 -0.6287  0.3715
 7557SOL    HW124112   2.902   6.994   9.954 -0.9126 -1.8061 -0.2424
 7557SOL    HW224113   2.843   6.971  10.091 -0.2922 -1.4158  0.0914
 7558SOL     OW24114   7.537   3.682   4.593  0.3315  0.3453 -0.2990
 7558SOL    HW124115   7.484   3.752   4.554 -0.8024 -0.4070 -0.1607
 7558SOL    HW224116   7.536   3.612   4.528 -1.1716 -0.7359  0.8075
 7559SOL     OW24117   3.973   7.406   1.684 -0.2443 -0.3861 -0.7918
 7559SOL    HW124118   4.054   7.405   1.736 -1.0585 -1.0491  0.5202
 7559SOL    HW224119   3.911   7.457   1.737 -0.6585  0.2574 -1.8594
 7560SOL     OW24120   6.742   6.382   7.245 -0.1592  0.2388  0.1476
 7560SOL    HW124121   6.824   6.429   7.235  0.9364 -1.1297  2.0186
 7560SOL    HW224122   6.674   6.449   7.238  1.0958  1.4441 -1.0759
 7561SOL     OW24123   5.512   1.598   7.620  0.3917 -0.1615 -0.4196
 7561SOL    HW124124   5.417   1.586   7.619  0.2163  0.9229  0.7495
 7561SOL    HW224125   5.540   1.568   7.533 -0.8976 -1.2892 -0.4931
 7562SOL     OW24126   6.242   1.446   5.946  0.0204  0.0582  0.3165
 7562SOL    HW124127   6.270   1.408   5.863 -0.7205 -2.9930  1.3319
 7562SOL    HW224128   6.323   1.475   5.988  0.3874  1.7638 -1.4573
 7563SOL     OW24129   0.113   5.767   8.941 -0.0175  0.2107  0.7656
 7563SOL    HW124130   0.096   5.822   8.864 -0.5764  0.2792  0.9374
 7563SOL    HW224131   0.033   5.716   8.953 -0.5724  1.3620  2.2528
 7564SOL     OW24132   1.869   0.888   4.341  0.1426 -0.2734  0.0461
 7564SOL    HW124133   1.804   0.831   4.382  0.2506 -0.8445 -0.5642
 7564SOL    HW224134   1.930   0.909   4.411 -0.6746  0.2528  0.6256
 7565SOL     OW24135   4.061   6.670   2.715  0.6292  0.3295  0.0906
 7565SOL    HW124136   4.071   6.684   2.809  0.7066  1.7832 -0.1118
 7565SOL    HW224137   4.042   6.576   2.706  0.6654  0.1693  1.5417
 7566SOL     OW24138   1.054   0.472  12.216 -0.1929 -0.0430 -0.5918
 7566SOL    HW124139   0.970   0.479  12.260 -0.2587  0.7393 -0.8249
 7566SOL    HW224140   1.042   0.402  12.152 -0.8152  0.3735 -0.9434
 7567SOL     OW24141   7.419   3.666   6.670 -0.0898 -0.0756  0.0006
 7567SOL    HW124142   7.469   3.694   6.594 -0.2081 -0.9128 -0.3954
 7567SOL    HW224143   7.481   3.671   6.743  0.1291  0.3674 -0.2132
 7568SOL     OW24144   3.975   6.201   5.843 -0.1017 -0.4667  0.2880
 7568SOL    HW124145   4.059   6.195   5.888  0.2443 -1.9756 -0.5083
 7568SOL    HW224146   3.917   6.144   5.893 -0.1580 -0.8540 -0.2185
 7569SOL     OW24147   0.982   3.934   4.720  0.7149 -0.7037 -0.3193
 7569SOL    HW124148   0.978   3.874   4.794  0.1890  0.1870  0.4045
 7569SOL    HW224149   1.075   3.945   4.702  0.9149  0.1162  1.1061
 7570SOL     OW24150   1.967   3.266   1.152  0.3389 -0.2697 -0.0299
 7570SOL    HW124151   1.990   3.174   1.135 -0.7892 -0.4705 -0.5686
 7570SOL    HW224152   2.041   3.316   1.117  0.8007 -0.9590 -0.0629
 7571SOL     OW24153   6.601   6.826  10.024  0.3514 -0.2080  0.1614
 7571SOL    HW124154   6.546   6.883   9.971  0.5976 -1.0703 -1.0590
 7571SOL    HW224155   6.672   6.881  10.054  0.6738  0.0971 -1.1353
 7572SOL     OW24156   6.373   5.997   8.007 -0.0168 -0.8885 -0.1819
 7572SOL    HW124157   6.323   5.963   8.081  0.2362 -0.2065  0.3075
 7572SOL    HW224158   6.463   6.005   8.041 -0.2421  1.1893  0.0315
 7573SOL     OW24159   7.061   0.893   6.959  0.2502  0.2349  0.1978
 7573SOL    HW124160   6.989   0.849   7.004  0.0390 -0.9951 -1.2534
 7573SOL    HW224161   7.038   0.986   6.962 -1.3824 -0.1309 -0.1949
 7574SOL     OW24162   2.522   6.585   5.884 -0.3038  0.0729  0.2113
 7574SOL    HW124163   2.523   6.652   5.953  0.1803 -0.9352  1.2103
 7574SOL    HW224164   2.476   6.627   5.811  0.4451  1.6843  0.6082
 7575SOL     OW24165   2.746   1.635   3.665 -0.6475  0.4847 -0.0735
 7575SOL    HW124166   2.725   1.639   3.758  0.2364 -1.2020  0.2340
 7575SOL    HW224167   2.771   1.544   3.649 -0.1910  0.8712 -1.8309
 7576SOL     OW24168   6.805   4.625   6.232 -0.2105 -0.2812  0.7497
 7576SOL    HW124169   6.763   4.676   6.163  0.0801 -1.4653 -0.3353
 7576SOL    HW224170   6.870   4.685   6.269  1.3471 -0.3596 -1.6599
 7577SOL     OW24171   5.245   4.316   1.509  0.3172 -0.0765 -0.1810
 7577SOL    HW124172   5.275   4.403   1.485 -1.8862  1.1868  1.2774
 7577SOL    HW224173   5.282   4.302   1.597  0.9309 -0.7822 -0.5414
 7578SOL     OW24174   5.152   3.873   0.272 -0.1663  0.1997  0.3976
 7578SOL    HW124175   5.119   3.789   0.304 -1.4469 -0.0836 -1.4706
 7578SOL    HW224176   5.089   3.937   0.302 -0.6926  0.0931 -0.4262
 7579SOL     OW24177   4.588   3.724   8.443  0.4791  0.1704 -0.0750
 7579SOL    HW124178   4.514   3.663   8.441  0.3789  0.2968 -1.4470
 7579SOL    HW224179   4.554   3.804   8.402  0.3132  1.5422  2.5354
 7580SOL     OW24180   6.724   4.066  10.454  0.2704 -0.7562  0.0942
 7580SOL    HW124181   6.711   3.976  10.483  0.8049 -0.1890  2.2938
 7580SOL    HW224182   6.681   4.119  10.521  0.3135  0.6567 -0.9408
 7581SOL     OW24183   1.057   0.030   4.359  0.3062  0.6966  0.7020
 7581SOL    HW124184   1.104  -0.046   4.393  0.6202  0.8043  0.5098
 7581SOL    HW224185   1.080   0.101   4.418 -0.1973  0.5867  1.0376
 7582SOL     OW24186   2.390   0.923   2.716 -0.0606 -0.3692 -0.2955
 7582SOL    HW124187   2.356   0.980   2.648 -0.2191 -0.9902 -0.7532
 7582SOL    HW224188   2.409   0.840   2.670 -1.6162 -1.3162  0.6770
 7583SOL     OW24189   7.472   2.738   1.880  0.4004 -0.1601 -0.1108
 7583SOL    HW124190   7.564   2.745   1.856  0.7133 -1.1809  0.7430
 7583SOL    HW224191   7.439   2.828   1.871  0.7409 -0.2465 -3.1635
 7584SOL     OW24192   6.326   5.606   7.930  0.4007  0.6660 -0.0337
 7584SOL    HW124193   6.236   5.582   7.950  0.5239 -1.1253 -1.4053
 7584SOL    HW224194   6.322   5.645   7.842  1.1548 -1.2072 -0.9529
 7585SOL     OW24195   1.889   6.687  10.176  0.0404  0.0790  0.1302
 7585SOL    HW124196   1.851   6.775  10.176 -0.1494  0.0061  1.2573
 7585SOL    HW224197   1.849   6.644  10.100 -1.0115  0.4720  0.4454
 7586SOL     OW24198   2.785   6.370   0.734 -0.5853  0.6097  0.2035
 7586SOL    HW124199   2.846   6.319   0.681 -1.0297  0.6523 -0.3551
 7586SOL    HW224200   2.734   6.305   0.781  0.7908  0.5747  1.7471
 7587SOL     OW24201   0.189   1.179   4.584 -0.4008 -0.2712  0.0029
 7587SOL    HW124202   0.166   1.113   4.518  1.2960  0.2761 -1.2229
 7587SOL    HW224203   0.137   1.256   4.561 -1.2119 -0.6798  0.4656
 7588SOL     OW24204   4.404   5.221   7.228 -0.5825 -0.1669  0.5623
 7588SOL    HW124205   4.344   5.222   7.302  0.2778 -1.4146  1.3094
 7588SOL    HW224206   4.491   5.209   7.267 -0.0279 -0.1002 -0.5976
 7589SOL     OW24207   0.660   1.079   9.479  0.3662 -0.3220 -0.2219
 7589SOL    HW124208   0.653   1.052   9.570 -0.1719 -1.9683 -0.7132
 7589SOL    HW224209   0.569   1.092   9.451  0.5525  0.6549 -0.3899
 7590SOL     OW24210   3.804   7.140   5.683  0.0683 -0.3318  0.0250
 7590SOL    HW124211   3.731   7.129   5.622 -0.1727  0.4579  0.1587
 7590SOL    HW224212   3.881   7.117   5.632 -0.2261 -0.6552 -0.2773
 7591SOL     OW24213   5.523   3.391   3.408 -0.0187  0.2992 -0.3524
 7591SOL    HW124214   5.522   3.447   3.331  3.2338  0.2431 -0.5706
 7591SOL    HW224215   5.615   3.369   3.421 -0.6673 -1.3459  2.3869
 7592SOL     OW24216   0.138   7.648   5.466 -0.6950  0.1435  0.3240
 7592SOL    HW124217   0.173   7.607   5.387  0.2352 -1.5557  1.5600
 7592SOL    HW224218   0.061   7.696   5.436  0.1069  0.2458 -1.7373
 7593SOL     OW24219   5.105   4.709   9.520 -0.1763 -0.2013  0.3615
 7593SOL    HW124220   5.061   4.790   9.494 -0.2628 -0.2117  0.4770
 7593SOL    HW224221   5.039   4.641   9.508 -0.2343 -0.1983  0.6698
 7594SOL     OW24222   5.128   3.685   2.174 -0.5254 -0.3573  0.1957
 7594SOL    HW124223   5.203   3.729   2.215  0.1113 -1.2988  0.0747
 7594SOL    HW224224   5.098   3.624   2.240  0.1938 -1.5308 -0.5218
 7595SOL     OW24225   5.134   7.879  11.137 -0.3503  0.7632  0.0605
 7595SOL    HW124226   5.192   7.825  11.082 -0.5315  0.8761 -0.2431
 7595SOL    HW224227   5.191   7.910  11.208  0.1054  1.3231 -0.5363
 7596SOL     OW24228   4.222   2.481   6.301  0.3895  0.0243 -0.1395
 7596SOL    HW124229   4.235   2.574   6.283 -0.2602 -0.1323 -1.5558
 7596SOL    HW224230   4.308   2.441   6.285  0.4286  0.2491 -0.5057
 7597SOL     OW24231   0.828   6.414   1.235  0.5809  0.5765 -0.4709
 7597SOL    HW124232   0.834   6.402   1.141  1.2143  1.3618 -0.5468
 7597SOL    HW224233   0.752   6.363   1.262  0.8541 -0.2666 -1.2900
 7598SOL     OW24234   6.805   4.965  10.186  0.2873 -0.4365  0.0521
 7598SOL    HW124235   6.788   4.925  10.101 -1.7688  0.6434 -0.1217
 7598SOL    HW224236   6.756   4.911  10.248 -0.9782  0.6362  0.0534
 7599SOL     OW24237   1.217   7.099   1.991 -0.1401  0.0302  0.4678
 7599SOL    HW124238   1.246   7.137   2.074 -0.5181  1.6715 -0.0978
 7599SOL    HW224239   1.204   7.175   1.934  3.1029 -1.0906 -2.1251
 7600SOL     OW24240   2.809   1.796   1.841  0.0940 -0.0147  0.0074
 7600SOL    HW124241   2.753   1.849   1.898 -1.1346 -0.6929 -0.5242
 7600SOL    HW224242   2.750   1.762   1.774  1.3132 -0.0880 -1.0697
 7601SOL     OW24243   2.917   6.051   1.921 -0.3013 -0.0214  0.3053
 7601SOL    HW124244   2.925   6.057   1.826 -0.2920 -1.8804  0.1480
 7601SOL    HW224245   2.998   6.010   1.950 -0.4133  0.2913  1.0993
 7602SOL     OW24246   2.971   7.681   1.128 -0.0964 -0.0239  0.8805
 7602SOL    HW124247   3.021   7.629   1.191 -1.4347  0.5646  2.5020
 7602SOL    HW224248   3.000   7.771   1.143  1.5335 -0.1064 -1.2689
 7603SOL     OW24249   4.159   4.359   0.293 -0.2280 -0.2979 -0.4947
 7603SOL    HW124250   4.114   4.306   0.360  0.5998 -0.4412 -0.0271
 7603SOL    HW224251   4.109   4.344   0.213 -1.1595 -0.2378  0.0635
 7604SOL     OW24252   0.512   4.705   9.556 -0.0574 -0.3532 -0.2064
 7604SOL    HW124253   0.534   4.621   9.596 -0.3067 -0.4562 -0.2827
 7604SOL    HW224254   0.466   4.753   9.624  0.3746 -0.1467 -0.0554
 7605SOL     OW24255   3.041   3.522   3.082 -0.1047 -0.7904 -0.1821
 7605SOL    HW124256   2.972   3.536   3.147  0.9098 -1.8671  1.1771
 7605SOL    HW224257   3.060   3.610   3.049 -1.9344 -0.4427 -0.4221
 7606SOL     OW24258   7.584   3.704   2.119 -0.0854 -0.2866 -0.1167
 7606SOL    HW124259   7.593   3.718   2.024 -0.3500 -0.8719 -0.2310
 7606SOL    HW224260   7.494   3.730   2.138 -1.1086 -3.1204 -0.5969
 7607SOL     OW24261   2.217   7.925  11.924  0.0029 -0.1884  0.3232
 7607SOL    HW124262   2.302   7.934  11.880 -0.7822 -1.9057 -1.7103
 7607SOL    HW224263   2.159   7.985  11.876  0.1925  1.6705  2.2862
 7608SOL     OW24264   5.276   4.502   3.096 -0.8145  0.4750  0.5284
 7608SOL    HW124265   5.195   4.483   3.143 -0.3398  1.2591  1.7198
 7608SOL    HW224266   5.340   4.440   3.132 -0.5577  0.7749  0.5982
 7609SOL     OW24267   6.632   0.595   3.580 -0.0508 -0.0058 -0.3452
 7609SOL    HW124268   6.559   0.653   3.555 -0.6555  0.3512  1.9944
 7609SOL    HW224269   6.609   0.564   3.667  1.8002 -1.2999 -0.2608
 7610SOL     OW24270   7.687   4.619   9.067 -0.4872  0.1141  0.0300
 7610SOL    HW124271   7.670   4.684   9.135  1.8500  0.2040  0.6147
 7610SOL    HW224272   7.603   4.608   9.023 -0.9563  3.6796 -0.2329
 7611SOL     OW24273   5.448   0.182   3.431  0.3079 -0.8809 -0.0917
 7611SOL    HW124274   5.458   0.133   3.349  0.1714  0.7455 -1.1253
 7611SOL    HW224275   5.524   0.241   3.433 -0.5924  0.3196  0.0422
 7612SOL     OW24276   5.674   5.210  11.154  0.1509 -0.4621  0.6194
 7612SOL    HW124277   5.742   5.277  11.162 -0.5455  0.3443  0.0341
 7612SOL    HW224278   5.699   5.159  11.078 -0.0622  0.0466  0.1986
 7613SOL     OW24279   3.115   3.615  12.088  0.2905  0.1936  0.0013
 7613SOL    HW124280   3.097   3.621  11.994 -1.1470  1.9102  0.3306
 7613SOL    HW224281   3.028   3.613  12.128  0.8701 -1.9028  1.2623
 7614SOL     OW24282   1.282   7.212   6.380 -0.3948  0.1356 -0.1581
 7614SOL    HW124283   1.279   7.125   6.341 -0.3568  0.3103 -0.5527
 7614SOL    HW224284   1.242   7.201   6.466  1.0300 -0.6200  0.4437
 7615SOL     OW24285   6.408   4.868   3.395  0.1462  0.8980  0.8040
 7615SOL    HW124286   6.395   4.774   3.401  3.3298  0.1076 -1.8469
 7615SOL    HW224287   6.359   4.895   3.317  1.7802  0.7485 -0.3204
 7616SOL     OW24288   3.218   0.226   6.406  0.4824 -0.3548 -0.1198
 7616SOL    HW124289   3.218   0.238   6.311  0.9721 -0.9388 -0.1976
 7616SOL    HW224290   3.290   0.166   6.423 -0.7578 -1.7617  0.4261
 7617SOL     OW24291   2.248   0.071   9.618 -0.0339 -0.2559  0.2532
 7617SOL    HW124292   2.289   0.157   9.607  0.1086 -0.2994  0.4398
 7617SOL    HW224293   2.198   0.079   9.700  0.2212 -0.4428  0.4297
 7618SOL     OW24294   1.746   4.880   4.065  0.5216  0.2431  0.2456
 7618SOL    HW124295   1.658   4.856   4.094  0.4016  1.2417  0.7445
 7618SOL    HW224296   1.777   4.942   4.131  0.9390  1.1936 -0.8157
 7619SOL     OW24297   1.305   4.716  11.398  0.3123 -0.3797  0.0053
 7619SOL    HW124298   1.256   4.732  11.479 -1.3187 -1.2716 -0.7637
 7619SOL    HW224299   1.397   4.727  11.424 -0.2048  0.2499  1.7551
 7620SOL     OW24300   6.020   6.395  10.600 -0.6936  0.0530  0.6019
 7620SOL    HW124301   5.989   6.450  10.528 -0.3869  0.4531  0.7718
 7620SOL    HW224302   6.054   6.316  10.558 -1.2403 -0.0622  0.3654
 7621SOL     OW24303   5.287   0.951   7.136  0.0569  0.3142 -0.0628
 7621SOL    HW124304   5.204   0.977   7.174 -0.0267 -2.1236  1.6153
 7621SOL    HW224305   5.296   1.006   7.057 -2.8317  0.9933 -0.0047
 7622SOL     OW24306   5.545   3.629   8.154 -0.1169  0.1245 -0.2046
 7622SOL    HW124307   5.581   3.685   8.223 -1.9137  0.5898  0.4018
 7622SOL    HW224308   5.510   3.553   8.200  1.2848 -1.0324 -0.9240
 7623SOL     OW24309   3.207   4.802  10.717  0.0187 -0.8548 -0.9524
 7623SOL    HW124310   3.301   4.799  10.732  0.0930  0.4554 -1.0555
 7623SOL    HW224311   3.189   4.893  10.693 -1.5503 -0.5545  1.0605
 7624SOL     OW24312   6.786   1.744   9.041  0.2652 -0.5316 -0.5257
 7624SOL    HW124313   6.771   1.809   9.109  2.4684 -0.6700  0.1794
 7624SOL    HW224314   6.744   1.780   8.963 -0.5642  0.6002  0.4142
 7625SOL     OW24315   2.625   2.509  12.108 -0.0362 -0.9396 -0.0149
 7625SOL    HW124316   2.646   2.444  12.042  1.5463 -0.3094 -0.1574
 7625SOL    HW224317   2.582   2.460  12.178  1.8795 -2.3116  0.2580
 7626SOL     OW24318   3.855   3.932   6.573  0.2796  0.1606 -0.0033
 7626SOL    HW124319   3.911   3.856   6.558  0.8485  0.4221  0.7464
 7626SOL    HW224320   3.883   3.966   6.658 -0.3596  0.8720 -0.0685
 7627SOL     OW24321   4.783   6.382   9.352 -0.7418  0.2234  0.3702
 7627SOL    HW124322   4.712   6.441   9.327 -0.0831  0.6648 -0.5459
 7627SOL    HW224323   4.863   6.428   9.325 -0.2435 -1.5324 -1.3529
 7628SOL     OW24324   1.688   1.187   3.473  0.4184 -0.1959 -0.1009
 7628SOL    HW124325   1.593   1.182   3.485  0.3958  1.0840  0.4600
 7628SOL    HW224326   1.723   1.120   3.532 -0.0375  1.3256  2.0184
 7629SOL     OW24327   3.748   6.351   9.139 -0.2833  0.0650 -0.0399
 7629SOL    HW124328   3.799   6.370   9.218 -0.0190 -0.3548 -0.1048
 7629SOL    HW224329   3.746   6.256   9.134  0.4721  0.0886 -1.0307
 7630SOL     OW24330   1.207   5.239   9.364  0.1437  0.2937  0.2496
 7630SOL    HW124331   1.297   5.270   9.378  1.0432 -2.4673  1.1992
 7630SOL    HW224332   1.198   5.233   9.269  1.4557 -0.6067  0.1561
 7631SOL     OW24333   1.373   3.821   5.765 -0.1331  0.6337 -0.7108
 7631SOL    HW124334   1.316   3.843   5.691 -0.1497  0.1749 -0.8361
 7631SOL    HW224335   1.406   3.733   5.745 -1.3091 -0.1220  0.5489
 7632SOL     OW24336   0.753   5.417   9.455 -0.3588  0.2003  0.3052
 7632SOL    HW124337   0.829   5.419   9.396  0.5894 -1.5762  1.4076
 7632SOL    HW224338   0.747   5.507   9.488  3.0216 -0.1298  2.2793
 7633SOL     OW24339   5.878   6.671   6.437  0.4382  0.2433  0.0170
 7633SOL    HW124340   5.853   6.759   6.409 -1.2969  0.4040  1.8563
 7633SOL    HW224341   5.962   6.683   6.482  0.4746  0.8792 -0.2209
 7634SOL     OW24342   2.031   3.417   6.469 -0.3193  0.0218  0.3926
 7634SOL    HW124343   2.013   3.346   6.407 -1.8663  0.8512 -0.1639
 7634SOL    HW224344   1.968   3.405   6.539 -0.5241  0.7816  0.3469
 7635SOL     OW24345   6.003   2.719   3.883  0.1240 -0.3567 -0.8927
 7635SOL    HW124346   5.915   2.749   3.910  0.3888 -0.4662  0.1207
 7635SOL    HW224347   6.009   2.746   3.792 -1.3574 -1.2333 -1.2904
 7636SOL     OW24348   6.787   6.321  11.537  0.0560 -0.0342 -0.2113
 7636SOL    HW124349   6.798   6.279  11.622  0.5015 -0.6439 -0.5585
 7636SOL    HW224350   6.762   6.249  11.478 -0.1506  0.3631 -0.6172
 7637SOL     OW24351   5.344   0.662   4.349  0.1448 -0.7690 -0.3737
 7637SOL    HW124352   5.296   0.581   4.361  1.9120 -1.8429 -0.1592
 7637SOL    HW224353   5.435   0.635   4.339  0.6292  1.0938 -1.7009
 7638SOL     OW24354   4.632   2.837   1.043  0.1631  0.3077  0.0065
 7638SOL    HW124355   4.565   2.872   0.984  0.0145 -0.9044 -0.5838
 7638SOL    HW224356   4.715   2.850   0.996 -0.0377 -1.4368 -0.9036
 7639SOL     OW24357   6.463   1.999   7.088 -0.1375 -0.9245 -0.2596
 7639SOL    HW124358   6.500   2.035   7.008 -0.5038 -0.4485 -0.2181
 7639SOL    HW224359   6.506   2.048   7.158  0.3444 -1.4881 -0.1476
 7640SOL     OW24360   3.518   1.449   2.914 -0.6394  0.0386  0.3154
 7640SOL    HW124361   3.446   1.474   2.971 -1.3346 -1.7608  0.3029
 7640SOL    HW224362   3.577   1.399   2.970 -0.3356 -0.0720 -0.0953
 7641SOL     OW24363   1.611   4.975   5.605 -0.8751 -0.8761  0.6124
 7641SOL    HW124364   1.691   4.992   5.556 -1.0640 -1.5094  0.0630
 7641SOL    HW224365   1.635   4.905   5.666 -0.8698 -0.6915  0.8230
 7642SOL     OW24366   4.668   4.589   6.075 -0.2176  0.3784 -0.3216
 7642SOL    HW124367   4.611   4.659   6.045 -0.6427 -0.0280 -0.4671
 7642SOL    HW224368   4.668   4.597   6.171 -1.8904 -0.6720 -0.2006
 7643SOL     OW24369   5.965   1.293   8.286  0.2761  0.3598  0.4524
 7643SOL    HW124370   6.043   1.347   8.274  0.8020 -0.0509  1.8593
 7643SOL    HW224371   5.892   1.354   8.275  0.7823  0.7815 -0.7077
 7644SOL     OW24372   2.034   1.181  11.417  0.1252 -0.4639 -0.0541
 7644SOL    HW124373   2.035   1.111  11.482 -1.5229  0.3920  0.9541
 7644SOL    HW224374   1.986   1.145  11.343  0.8824 -0.9986 -0.2997
 7645SOL     OW24375   3.326   2.244   5.107  0.2975  0.0221 -0.2044
 7645SOL    HW124376   3.288   2.298   5.176  0.7270  1.2116 -0.8558
 7645SOL    HW224377   3.411   2.217   5.142  0.9020  1.3579 -0.5676
 7646SOL     OW24378   1.139   4.707  11.634 -0.1699 -0.4551  0.1569
 7646SOL    HW124379   1.062   4.742  11.680  0.3488  0.0131  0.6773
 7646SOL    HW224380   1.213   4.750  11.676  0.3250 -0.1393 -1.0131
 7647SOL     OW24381   6.899   5.237   6.480  0.0328 -0.0109  0.0381
 7647SOL    HW124382   6.965   5.181   6.440 -0.1239 -0.5110  0.4729
 7647SOL    HW224383   6.816   5.198   6.455 -0.1546  1.2383 -1.4357
 7648SOL     OW24384   2.903   2.947   5.009  0.5212 -0.1176  0.1813
 7648SOL    HW124385   2.923   3.023   4.956 -0.0191 -0.3910 -0.4360
 7648SOL    HW224386   2.808   2.934   4.998  0.6860 -1.1685 -0.1299
 7649SOL     OW24387   1.923   0.193   5.882 -0.2672 -0.1192  0.1936
 7649SOL    HW124388   1.938   0.201   5.788 -0.5862  1.0390  0.2265
 7649SOL    HW224389   1.973   0.116   5.908 -0.9680 -1.0305 -1.0824
 7650SOL     OW24390   0.766   1.506   5.615 -1.0068  0.9341 -0.2926
 7650SOL    HW124391   0.774   1.433   5.554  0.4067 -0.4131  1.3785
 7650SOL    HW224392   0.678   1.495   5.653 -1.0916  0.5230 -0.5980
 7651SOL     OW24393   6.509   4.841   0.336 -0.6373  0.2324 -0.2084
 7651SOL    HW124394   6.471   4.786   0.404  0.2700  1.6405  1.5190
 7651SOL    HW224395   6.545   4.917   0.383  2.4555 -0.0106 -1.9131
 7652SOL     OW24396   6.392   7.832  11.603  0.3247 -0.3104 -0.4304
 7652SOL    HW124397   6.368   7.907  11.657 -1.6263 -1.3844  0.2849
 7652SOL    HW224398   6.339   7.840  11.524  2.8123  0.9847 -2.1135
 7653SOL     OW24399   7.885   3.167   1.054  0.4184 -1.0310 -0.0031
 7653SOL    HW124400   7.792   3.173   1.074  0.3840  0.1044 -0.4174
 7653SOL    HW224401   7.890   3.104   0.982  0.3013 -3.2893  1.8554
 7654SOL     OW24402   1.246   2.894   7.384 -0.0034 -0.0856  1.1198
 7654SOL    HW124403   1.171   2.943   7.353  1.2939  1.9193  0.9902
 7654SOL    HW224404   1.216   2.851   7.464 -2.0178 -1.5168 -0.3247
 7655SOL     OW24405   0.431   0.037   0.777 -0.2126  1.1525 -0.3092
 7655SOL    HW124406   0.515   0.021   0.733 -0.0285  0.7961  0.1613
 7655SOL    HW224407   0.437  -0.013   0.859 -0.8255  1.2482 -0.2016
 7656SOL     OW24408   1.838   1.230   5.416 -0.3132  0.1291  0.1268
 7656SOL    HW124409   1.796   1.278   5.487 -1.0866  1.9920 -1.4857
 7656SOL    HW224410   1.765   1.198   5.362  0.0752 -4.1736  1.7900
 7657SOL     OW24411   3.036   7.379  11.363 -0.3580 -0.2129  0.1788
 7657SOL    HW124412   3.045   7.284  11.355  0.9724 -0.0497 -0.7950
 7657SOL    HW224413   3.099   7.404  11.430 -1.3955 -0.1002  1.1322
 7658SOL     OW24414   0.162   7.014   0.475 -0.2859 -0.1785  0.4786
 7658SOL    HW124415   0.197   6.928   0.498  1.1440  0.6322  1.5250
 7658SOL    HW224416   0.072   7.013   0.506 -1.0251 -2.0421 -1.4996
 7659SOL     OW24417   2.157   1.072   7.014 -0.3863 -0.1184 -0.5505
 7659SOL    HW124418   2.166   1.092   7.107 -0.6894 -0.3881 -0.4609
 7659SOL    HW224419   2.089   1.006   7.010  1.4687 -2.1497 -0.7025
 7660SOL     OW24420   5.885   2.210   1.478 -0.3740  0.3642  0.2345
 7660SOL    HW124421   5.939   2.144   1.433  0.0317  0.9115 -0.0917
 7660SOL    HW224422   5.809   2.221   1.421 -0.9347 -0.5335  0.7789
 7661SOL     OW24423   6.746   0.592   9.431 -0.0735 -0.2238  1.1489
 7661SOL    HW124424   6.750   0.529   9.503  0.2692 -1.0516  0.4226
 7661SOL    HW224425   6.765   0.540   9.353  0.5803  0.8599  0.5723
 7662SOL     OW24426   0.002   1.006   2.504 -0.1905  0.1155  0.4174
 7662SOL    HW124427   0.083   0.966   2.473 -1.1124 -0.7122 -1.0486
 7662SOL    HW224428   0.025   1.044   2.589  2.5746  2.7388 -1.3041
 7663SOL     OW24429   7.013   1.871  10.522  0.6040  0.3691 -0.0543
 7663SOL    HW124430   7.091   1.867  10.577  0.2851  1.1051  0.4733
 7663SOL    HW224431   6.971   1.785  10.532  0.9868  0.2115  0.1929
 7664SOL     OW24432   0.491   0.653   8.148  0.6023 -0.0536  0.3019
 7664SOL    HW124433   0.547   0.714   8.101 -0.7037  0.4997 -0.5678
 7664SOL    HW224434   0.427   0.623   8.084 -0.3334 -0.3949  1.3508
 7665SOL     OW24435   3.080   0.376   7.158  0.0683 -0.1375 -0.1298
 7665SOL    HW124436   3.043   0.288   7.157 -2.7027  0.9078  0.2823
 7665SOL    HW224437   3.061   0.411   7.071 -1.2699  0.9144  0.5543
 7666SOL     OW24438   4.882   4.750  11.191 -0.3320 -0.1339  0.1251
 7666SOL    HW124439   4.953   4.753  11.126 -0.2513  0.3296  0.2351
 7666SOL    HW224440   4.805   4.726  11.140  0.2552 -2.7657  0.3042
 7667SOL     OW24441   4.117   2.875   6.493  0.2294 -0.1245 -0.3651
 7667SOL    HW124442   4.050   2.935   6.460 -0.0553 -0.6389 -0.7328
 7667SOL    HW224443   4.071   2.818   6.555  0.8968  1.2758  1.5147
 7668SOL     OW24444   5.227   1.365  11.031  0.4937  0.0890  0.0154
 7668SOL    HW124445   5.216   1.273  11.053 -2.3636  0.4673  0.5660
 7668SOL    HW224446   5.303   1.367  10.973  0.2988 -2.6655 -0.4737
 7669SOL     OW24447   5.884   3.221  11.512  0.3003 -0.5783 -0.0155
 7669SOL    HW124448   5.884   3.268  11.428 -0.6734  0.4722  0.5473
 7669SOL    HW224449   5.813   3.158  11.504  0.6957 -1.0047 -0.2444
 7670SOL     OW24450   5.103   7.626  11.602 -0.3762 -0.2236 -0.1078
 7670SOL    HW124451   5.029   7.673  11.561 -1.0938 -1.7793 -0.6706
 7670SOL    HW224452   5.146   7.582  11.529  1.1321  0.6345  0.2247
 7671SOL     OW24453   2.056   7.004   0.805 -0.0201 -0.0649  0.0628
 7671SOL    HW124454   2.002   6.985   0.728  0.2835  0.3700 -0.2678
 7671SOL    HW224455   2.079   7.097   0.795  0.7740 -0.2376  0.1995
 7672SOL     OW24456   7.203   1.993   6.345  0.0695  0.1458  0.2656
 7672SOL    HW124457   7.246   2.011   6.428  0.1209  0.0306  0.2641
 7672SOL    HW224458   7.185   2.080   6.308  1.5427  0.2041 -0.3730
 7673SOL     OW24459   0.221   7.675  11.060 -0.1778  0.9779 -0.0495
 7673SOL    HW124460   0.289   7.630  11.111  0.0939  1.6440  0.1872
 7673SOL    HW224461   0.141   7.626  11.079  0.4690 -0.7204 -1.4706
 7674SOL     OW24462   4.968   4.888   6.271 -0.5565  0.3995  0.2751
 7674SOL    HW124463   4.927   4.803   6.285 -0.5889  0.5959  1.5727
 7674SOL    HW224464   4.919   4.928   6.199 -0.6521 -0.5983 -0.2226
 7675SOL     OW24465   1.914   4.572   8.668 -0.6570 -0.3803 -0.2851
 7675SOL    HW124466   1.919   4.511   8.742 -0.5745 -2.3904 -1.8519
 7675SOL    HW224467   1.997   4.558   8.621 -0.9036  0.5291 -1.0025
 7676SOL     OW24468   6.445   1.405   3.602 -0.4254  0.6851  0.1042
 7676SOL    HW124469   6.461   1.489   3.559 -0.4345  1.3693  1.3980
 7676SOL    HW224470   6.532   1.369   3.617 -0.4388  0.0314 -1.2182
 7677SOL     OW24471   2.673   3.218   4.630 -0.2794 -0.0473  0.1894
 7677SOL    HW124472   2.708   3.305   4.647  0.0730  0.2157 -1.6744
 7677SOL    HW224473   2.609   3.230   4.560 -2.5864 -0.8608  2.0221
 7678SOL     OW24474   6.182   3.607  11.589 -0.4006  0.3065  0.2457
 7678SOL    HW124475   6.129   3.686  11.600  0.8549  1.0036  1.6840
 7678SOL    HW224476   6.222   3.617  11.502  0.3050  1.6279  0.7014
 7679SOL     OW24477   4.387   7.626   7.050 -0.1163 -0.2101  0.0326
 7679SOL    HW124478   4.301   7.619   7.008  0.7194  1.4767 -2.1505
 7679SOL    HW224479   4.398   7.720   7.066  0.7913 -0.5426  1.5402
 7680SOL     OW24480   1.491   1.284   4.539 -0.4061 -0.2465 -0.2620
 7680SOL    HW124481   1.423   1.299   4.473 -0.3378  0.7393 -0.1171
 7680SOL    HW224482   1.484   1.359   4.598  2.2767  1.1418 -1.4955
 7681SOL     OW24483   3.546   6.683   7.948  0.7316 -0.5098 -0.8446
 7681SOL    HW124484   3.555   6.767   7.993  1.4586 -1.1140  0.2030
 7681SOL    HW224485   3.574   6.700   7.858 -1.5890  0.9330 -1.3552
 7682SOL     OW24486   5.148   6.578   6.011  0.7273  0.6499 -0.1503
 7682SOL    HW124487   5.127   6.670   6.029 -0.1397  0.7927 -1.7181
 7682SOL    HW224488   5.103   6.559   5.929  3.3095 -0.2978 -1.4727
 7683SOL     OW24489   7.178   1.221   6.059 -0.6938 -0.4093 -0.1952
 7683SOL    HW124490   7.128   1.166   6.121  0.3823  2.1523  3.2200
 7683SOL    HW224491   7.264   1.180   6.055 -1.0862 -1.1874 -0.8924
 7684SOL     OW24492   7.213   4.555   2.976  0.2118 -0.0863  0.1840
 7684SOL    HW124493   7.190   4.645   2.952 -3.1712 -0.2052  2.2707
 7684SOL    HW224494   7.161   4.501   2.917 -0.2517 -0.5649  1.0096
 7685SOL     OW24495   1.337   0.399  11.253 -0.0749 -0.2593  0.1427
 7685SOL    HW124496   1.329   0.489  11.222  2.8979 -0.3726 -1.2656
 7685SOL    HW224497   1.369   0.407  11.343  1.3034  0.1496 -0.3611
 7686SOL     OW24498   0.096   4.167  11.216 -0.5637 -0.4388 -0.1103
 7686SOL    HW124499   0.186   4.136  11.220  0.1992  1.5296 -0.7470
 7686SOL    HW224500   0.081   4.210  11.301 -0.7627 -0.3917 -0.1670
 7687SOL     OW24501   4.148   7.273  11.022  0.2004  0.4126  0.4611
 7687SOL    HW124502   4.198   7.192  11.014  0.0492  0.1956  1.6102
 7687SOL    HW224503   4.115   7.273  11.112 -1.5829  0.7171 -0.1498
 7688SOL     OW24504   4.502   5.134  11.739  0.0010 -0.2156 -0.3688
 7688SOL    HW124505   4.423   5.167  11.698  1.1994  2.5436 -0.6700
 7688SOL    HW224506   4.561   5.113  11.666  0.9414  1.5787 -0.1836
 7689SOL     OW24507   6.056   5.196   1.031 -0.6168  0.2417  0.3304
 7689SOL    HW124508   5.974   5.188   0.982 -0.8469 -0.4125  0.8120
 7689SOL    HW224509   6.044   5.141   1.108  0.8084 -1.0304 -0.3072
 7690SOL     OW24510   2.247   1.705   1.751 -0.3761 -0.0704 -0.2535
 7690SOL    HW124511   2.218   1.794   1.770 -0.3900  0.0956 -1.0339
 7690SOL    HW224512   2.336   1.701   1.786 -0.9111 -0.2488  1.1850
 7691SOL     OW24513   3.950   4.788   5.963  0.3237  1.0344  0.3353
 7691SOL    HW124514   3.988   4.772   5.876  1.9908  0.2074  1.1562
 7691SOL    HW224515   3.982   4.875   5.987  0.8639  0.7667  0.6005
 7692SOL     OW24516   0.553   0.323   1.870 -0.6821 -0.1148 -0.1502
 7692SOL    HW124517   0.648   0.331   1.883 -1.0407  1.1517  2.3323
 7692SOL    HW224518   0.544   0.256   1.802  1.9683 -0.7186 -0.0358
 7693SOL     OW24519   7.602   1.691   3.198 -0.0351  0.4211 -0.3172
 7693SOL    HW124520   7.695   1.702   3.179  0.4292  0.6614  1.9142
 7693SOL    HW224521   7.579   1.606   3.158  0.9644  0.6269 -1.3721
 7694SOL     OW24522   0.341   2.027   8.742 -0.1333 -0.2364  0.0668
 7694SOL    HW124523   0.388   2.072   8.812  0.3330  0.6936 -0.8203
 7694SOL    HW224524   0.250   2.055   8.753 -0.2908 -1.0696  1.0327
 7695SOL     OW24525   2.711   2.649   3.233 -0.2510  0.4750 -0.5910
 7695SOL    HW124526   2.751   2.719   3.181  2.2920  0.3853  1.0486
 7695SOL    HW224527   2.757   2.570   3.207 -0.5548  0.0398  0.1484
 7696SOL     OW24528   0.417   3.687  11.536 -0.5188 -0.1422  0.3541
 7696SOL    HW124529   0.492   3.698  11.594 -1.1973  1.6085  0.9663
 7696SOL    HW224530   0.440   3.736  11.457 -1.0497  0.4650  0.5748
 7697SOL     OW24531   0.056   4.875   4.955 -0.0533  0.0562  0.2625
 7697SOL    HW124532  -0.037   4.872   4.934  0.2141  0.3873 -1.0467
 7697SOL    HW224533   0.089   4.789   4.929 -0.1346 -0.4022  1.5733
 7698SOL     OW24534   6.242   7.903  10.424 -0.2965 -0.0600  0.1382
 7698SOL    HW124535   6.271   7.970  10.362 -0.0649  0.1696  0.4942
 7698SOL    HW224536   6.175   7.854  10.376 -0.5637  0.5041 -0.0829
 7699SOL     OW24537   7.427   6.688   0.320 -0.0959  0.1069  0.1958
 7699SOL    HW124538   7.401   6.778   0.304 -0.5223  0.1290  0.9676
 7699SOL    HW224539   7.345   6.639   0.322  0.2018 -0.5649 -1.6677
 7700SOL     OW24540   7.834   7.699   3.142  0.0716 -0.4476  0.5055
 7700SOL    HW124541   7.871   7.786   3.154 -0.8380 -0.2451  2.2434
 7700SOL    HW224542   7.747   7.715   3.107  0.7179 -0.8166 -1.4023
 7701SOL     OW24543   4.354   7.811   2.138  0.5825  0.6560 -0.2914
 7701SOL    HW124544   4.287   7.865   2.180  1.6544  0.5502  1.6139
 7701SOL    HW224545   4.325   7.806   2.046 -2.1277  0.4260  0.4886
 7702SOL     OW24546   2.667   6.301   3.626 -0.1723  0.8464 -0.7156
 7702SOL    HW124547   2.638   6.379   3.674 -0.6607  0.8742 -1.0492
 7702SOL    HW224548   2.607   6.232   3.653  1.3962  0.0926  1.0173
 7703SOL     OW24549   5.980   3.916   3.383 -0.0475  0.0464 -0.6493
 7703SOL    HW124550   5.984   3.965   3.465 -0.0419 -0.2656 -0.4622
 7703SOL    HW224551   6.043   3.960   3.326 -0.1868  0.3793 -0.5489
 7704SOL     OW24552   2.628   7.623  11.482 -0.1511 -0.1374  0.4163
 7704SOL    HW124553   2.694   7.569  11.525 -0.8297 -0.1147  1.5389
 7704SOL    HW224554   2.612   7.580  11.398  1.5986  0.1207 -0.0794
 7705SOL     OW24555   2.405   4.443   9.840 -0.0525 -0.0712 -0.5709
 7705SOL    HW124556   2.492   4.468   9.869 -0.5137  0.3536  0.4982
 7705SOL    HW224557   2.356   4.427   9.921 -1.0408 -0.0374 -1.1426
 7706SOL     OW24558   5.089   6.101   7.067 -0.4531  0.1648 -0.4132
 7706SOL    HW124559   5.161   6.094   7.130  0.6123 -0.6331 -1.6757
 7706SOL    HW224560   5.024   6.155   7.111  1.2292  1.5473  0.4815
 7707SOL     OW24561   0.831   1.080   2.092 -1.0483 -0.3504 -0.1488
 7707SOL    HW124562   0.858   1.000   2.048 -1.9975 -0.1631 -1.1022
 7707SOL    HW224563   0.838   1.059   2.186  0.4011 -0.9469 -0.3570
 7708SOL     OW24564   6.286   5.876  11.161  0.0654 -0.6004 -0.0724
 7708SOL    HW124565   6.338   5.862  11.082 -1.6709  0.0231 -1.3826
 7708SOL    HW224566   6.214   5.814  11.155 -0.0845 -0.5637  1.0524
 7709SOL     OW24567   5.591   0.717   2.310 -0.6133 -0.3580  0.3532
 7709SOL    HW124568   5.682   0.687   2.307 -0.1061  0.9764  1.1799
 7709SOL    HW224569   5.581   0.770   2.231 -0.9349 -1.1455 -0.1467
 7710SOL     OW24570   1.924   7.514   2.172  0.5514 -0.0244 -0.0315
 7710SOL    HW124571   1.973   7.507   2.089 -0.4989 -0.9005 -0.6045
 7710SOL    HW224572   1.854   7.577   2.153  0.2803 -0.2645  0.1732
 7711SOL     OW24573   4.326   1.520   3.335 -0.0213  0.9452  0.2608
 7711SOL    HW124574   4.238   1.536   3.301  0.6024  2.6867 -0.6165
 7711SOL    HW224575   4.371   1.471   3.265  0.3210  1.8557 -0.1698
 7712SOL     OW24576   4.678   1.259   5.424  0.3079  0.1107 -0.6632
 7712SOL    HW124577   4.613   1.327   5.407  0.4027  0.2036 -0.6585
 7712SOL    HW224578   4.665   1.195   5.354  0.8134  0.5768 -1.2064
 7713SOL     OW24579   3.959   0.374  12.316  0.0728  0.6632  0.1190
 7713SOL    HW124580   3.893   0.391  12.249  1.5112 -0.3507 -1.6514
 7713SOL    HW224581   3.956   0.451  12.372 -2.0524  0.9807 -0.3627
 7714SOL     OW24582   0.198   2.869   4.832 -0.0805 -0.2675 -0.5578
 7714SOL    HW124583   0.111   2.859   4.791 -0.2125 -0.2452 -0.2850
 7714SOL    HW224584   0.232   2.951   4.796 -0.1463 -0.3072 -0.7129
 7715SOL     OW24585   4.688   6.556   6.907 -0.3018 -0.5157  0.1345
 7715SOL    HW124586   4.781   6.574   6.918  0.6256 -1.5986 -4.1065
 7715SOL    HW224587   4.645   6.640   6.919  1.6344  0.6919 -0.8700
 7716SOL     OW24588   5.119   6.793  12.274  0.6969 -0.0631  0.5343
 7716SOL    HW124589   5.113   6.793  12.179  3.8631  1.1182  0.2163
 7716SOL    HW224590   5.155   6.879  12.296  0.1235 -0.3382  2.8084
 7717SOL     OW24591   7.375   4.810   3.828 -0.3455  0.4592 -0.0591
 7717SOL    HW124592   7.352   4.893   3.787 -0.4890 -0.5759 -2.1828
 7717SOL    HW224593   7.374   4.746   3.757  0.3945 -1.2662  1.3896
 7718SOL     OW24594   7.587   5.271   2.335 -0.5151 -0.1539  0.1506
 7718SOL    HW124595   7.631   5.352   2.308 -0.0270  0.4244  2.4356
 7718SOL    HW224596   7.618   5.205   2.273  1.5557  0.7824  0.0924
 7719SOL     OW24597   0.504   2.409  11.523 -0.4905  0.3331 -0.0132
 7719SOL    HW124598   0.413   2.405  11.497 -0.6714 -2.4250  0.7362
 7719SOL    HW224599   0.549   2.349  11.464  0.7826  1.2838 -0.0611
 7720SOL     OW24600   2.886   6.716   3.196  0.6344 -0.0713 -0.6355
 7720SOL    HW124601   2.936   6.748   3.121  0.1383 -1.5058 -1.6300
 7720SOL    HW224602   2.931   6.635   3.222  0.1467 -0.1819 -0.1070
 7721SOL     OW24603   0.971   2.681   5.510 -0.1056  0.2753 -1.1210
 7721SOL    HW124604   0.881   2.658   5.489  0.0223 -1.7917  0.3338
 7721SOL    HW224605   0.966   2.721   5.597  0.4040  0.0909 -1.0042
 7722SOL     OW24606   5.820   4.684   3.488 -0.1077  0.5267  0.6718
 7722SOL    HW124607   5.847   4.753   3.426  1.7722  0.9554  1.8749
 7722SOL    HW224608   5.898   4.629   3.497 -1.1278 -0.9377  0.8560
 7723SOL     OW24609   3.741   7.886   5.365  0.3168  0.2769  0.4781
 7723SOL    HW124610   3.765   7.975   5.339 -1.8827  0.8800  0.3487
 7723SOL    HW224611   3.783   7.874   5.450  1.2862  1.1243  0.1481
 7724SOL     OW24612   7.119   5.640  11.998 -0.4795  0.1190 -0.4785
 7724SOL    HW124613   7.119   5.586  12.076  2.6192  0.8922  0.2026
 7724SOL    HW224614   7.143   5.727  12.029  1.4651  0.3174 -2.2916
 7725SOL     OW24615   4.604   7.718   0.732  0.0104 -0.1991  0.2406
 7725SOL    HW124616   4.690   7.756   0.714 -0.5656  0.9907 -0.0551
 7725SOL    HW224617   4.564   7.777   0.795 -0.4005 -1.0342  0.7868
 7726SOL     OW24618   6.210   0.295   8.380 -0.1447  0.3974  0.0353
 7726SOL    HW124619   6.118   0.270   8.374  0.0169  0.0405 -1.1197
 7726SOL    HW224620   6.208   0.388   8.404 -0.9452  1.5994 -3.9064
 7727SOL     OW24621   1.380   5.488   7.670 -0.0325  0.0073  0.0143
 7727SOL    HW124622   1.296   5.444   7.680 -0.0524  0.1974  0.7237
 7727SOL    HW224623   1.441   5.434   7.721  0.1905  0.1251 -0.1247
 7728SOL     OW24624   2.520   5.729   6.313 -0.2626  0.2660  0.1587
 7728SOL    HW124625   2.437   5.732   6.266 -0.0477 -0.6598 -0.3008
 7728SOL    HW224626   2.576   5.791   6.267 -0.3326  0.0128 -0.2754
 7729SOL     OW24627   4.601   6.046   5.099 -0.2074 -0.2374  0.3525
 7729SOL    HW124628   4.665   6.007   5.158  0.7539  0.7911  0.0104
 7729SOL    HW224629   4.570   5.973   5.046  1.1848 -0.6427  0.0589
 7730SOL     OW24630   7.771   7.427   7.949 -0.7059 -0.0575  0.4162
 7730SOL    HW124631   7.819   7.367   7.891  0.6558  1.4701 -0.1152
 7730SOL    HW224632   7.761   7.507   7.897 -0.5893  0.9084  1.8313
 7731SOL     OW24633   3.811   2.027   3.274 -0.6275  0.2349 -0.2825
 7731SOL    HW124634   3.753   1.972   3.327 -1.4590  1.2435 -0.1163
 7731SOL    HW224635   3.789   2.004   3.183 -0.1527 -0.5266 -0.2125
 7732SOL     OW24636   0.994   6.926   5.136  0.2879 -0.7806 -0.1488
 7732SOL    HW124637   0.916   6.885   5.175  0.3077 -1.1906 -0.5253
 7732SOL    HW224638   0.960   6.972   5.059  0.3124 -0.3473  0.1008
 7733SOL     OW24639   6.908   1.578   4.222  0.0738 -0.0285 -0.1179
 7733SOL    HW124640   6.877   1.514   4.157  0.7707  0.3490 -0.8344
 7733SOL    HW224641   6.837   1.583   4.286  0.2460 -1.9690  0.2919
 7734SOL     OW24642   3.297   5.412   7.053  0.7562  0.0293  0.7190
 7734SOL    HW124643   3.227   5.357   7.020  2.4693 -1.2810 -0.9564
 7734SOL    HW224644   3.261   5.501   7.052 -0.3959 -0.4041 -1.4881
 7735SOL     OW24645   1.572   7.294  10.051 -0.2631 -0.1599 -1.1611
 7735SOL    HW124646   1.551   7.304   9.958  0.3791  2.0942 -1.1404
 7735SOL    HW224647   1.490   7.312  10.096 -0.6879 -1.7250 -1.2817
 7736SOL     OW24648   6.775   6.616   5.209  0.8610  0.1552 -0.1443
 7736SOL    HW124649   6.736   6.703   5.212  0.7315  0.4024 -3.9861
 7736SOL    HW224650   6.835   6.619   5.134  0.7185 -3.0937 -0.5483
 7737SOL     OW24651   2.159   2.817   7.686 -0.2962  0.1401 -0.1853
 7737SOL    HW124652   2.089   2.826   7.751 -0.2481 -0.0998 -0.0976
 7737SOL    HW224653   2.156   2.724   7.661 -0.3461  0.2435 -0.5635
 7738SOL     OW24654   5.064   2.310   3.909  0.0137  0.5826 -0.1117
 7738SOL    HW124655   4.983   2.344   3.948 -1.3275 -1.4357 -0.9718
 7738SOL    HW224656   5.082   2.370   3.837 -0.2518  1.5046  0.5606
 7739SOL     OW24657   5.256   6.864   2.772  0.1647  0.2020  0.3801
 7739SOL    HW124658   5.263   6.865   2.677 -1.4641  0.1100  0.2356
 7739SOL    HW224659   5.309   6.788   2.799  1.8861  1.1047 -0.2880
 7740SOL     OW24660   7.268   3.594  10.658 -1.4462  0.0918 -0.7748
 7740SOL    HW124661   7.205   3.523  10.666 -2.4037  0.7553 -2.0688
 7740SOL    HW224662   7.246   3.637  10.576 -0.4050  1.4163 -0.4048
 7741SOL     OW24663   2.228   1.232   8.290  0.0207 -0.0334 -0.0662
 7741SOL    HW124664   2.266   1.162   8.344 -0.9394 -0.3890  0.1699
 7741SOL    HW224665   2.141   1.199   8.267 -0.2521  0.8846 -0.3656
 7742SOL     OW24666   7.293   3.294  11.926  0.2705 -0.2535 -0.4533
 7742SOL    HW124667   7.251   3.378  11.947  0.5158  0.5651 -2.9064
 7742SOL    HW224668   7.386   3.315  11.920  0.0629  0.3800 -4.9092
 7743SOL     OW24669   0.138   5.610   9.697 -0.0231  0.1458 -0.3069
 7743SOL    HW124670   0.214   5.552   9.700  0.8499  1.2884  1.9194
 7743SOL    HW224671   0.150   5.662   9.618  0.6231 -0.7920 -0.8454
 7744SOL     OW24672   4.391   3.060   1.180  0.0530 -0.1473 -0.0188
 7744SOL    HW124673   4.384   2.968   1.153  2.4850 -0.1866 -0.8022
 7744SOL    HW224674   4.458   3.059   1.248 -0.8281  0.9308  0.9022
 7745SOL     OW24675   0.278   5.962   4.915 -0.7887 -0.5798  0.2026
 7745SOL    HW124676   0.202   5.904   4.922 -0.0437 -1.8530 -1.5680
 7745SOL    HW224677   0.284   5.982   4.822  0.7049 -0.0411  0.3885
 7746SOL     OW24678   0.070   4.047   8.095 -0.1420 -0.7965  0.1924
 7746SOL    HW124679   0.093   4.140   8.096 -3.1862  0.0949 -0.2481
 7746SOL    HW224680   0.050   4.026   8.186  0.9959 -1.1865  0.3652
 7747SOL     OW24681   0.387   1.062   4.739 -0.2793 -0.6938  0.4691
 7747SOL    HW124682   0.420   0.993   4.682  2.5131  1.5269 -0.8540
 7747SOL    HW224683   0.328   1.113   4.684  2.8876  1.8173 -0.9352
 7748SOL     OW24684   6.364   3.309  11.733 -0.3128 -0.2523  0.2064
 7748SOL    HW124685   6.268   3.305  11.724 -0.3559 -0.1633  0.6306
 7748SOL    HW224686   6.381   3.390  11.781 -0.1415 -1.1122  1.6503
 7749SOL     OW24687   5.274   1.456  10.173  0.1176  0.4326 -0.3233
 7749SOL    HW124688   5.312   1.509  10.243  0.7495  0.3986 -0.6358
 7749SOL    HW224689   5.272   1.514  10.097  1.4201 -0.1641 -0.8453
 7750SOL     OW24690   1.842   0.097   0.417  0.1244  0.3039 -0.2789
 7750SOL    HW124691   1.869   0.008   0.441  0.2451  0.4943  0.3014
 7750SOL    HW224692   1.773   0.084   0.352  0.1827 -0.2119 -0.2466
 7751SOL     OW24693   0.370   4.834   9.752 -0.0961 -0.3023  0.4576
 7751SOL    HW124694   0.421   4.887   9.813 -0.4482 -0.4949  0.9301
 7751SOL    HW224695   0.324   4.898   9.697 -0.1961 -0.1189  0.7521
 7752SOL     OW24696   0.119   1.741   6.222  0.0626  0.3567  0.4216
 7752SOL    HW124697   0.175   1.763   6.296  0.2033  0.0803  0.4000
 7752SOL    HW224698   0.032   1.770   6.248  0.1313  0.3599  0.6507
 7753SOL     OW24699   0.599   1.308   8.484 -0.0732 -0.2067  0.3730
 7753SOL    HW124700   0.638   1.285   8.400  0.6575  1.5595  0.1910
 7753SOL    HW224701   0.674   1.326   8.541 -0.5580 -1.3559  1.4325
 7754SOL     OW24702   1.938   4.334   0.981 -0.1746 -0.2643 -0.1093
 7754SOL    HW124703   2.028   4.363   0.966 -0.3549 -0.3259 -1.3832
 7754SOL    HW224704   1.883   4.399   0.938 -0.7316 -0.5121  0.1984
 7755SOL     OW24705   6.092   5.720  11.559  0.3724  0.4616  0.0598
 7755SOL    HW124706   6.162   5.740  11.497  0.7387  0.4237  0.4570
 7755SOL    HW224707   6.105   5.627  11.580  1.0027  0.7690  1.1162
 7756SOL     OW24708   0.015   6.434   7.813 -0.3365 -0.5277  0.2252
 7756SOL    HW124709   0.077   6.392   7.753 -0.0953  0.0574  0.0579
 7756SOL    HW224710   0.045   6.525   7.819 -2.8656  0.6495 -2.2307
 7757SOL     OW24711   1.091   5.273   6.082  0.4369 -0.4151 -0.2176
 7757SOL    HW124712   1.074   5.184   6.114 -0.2493 -0.3858 -0.4811
 7757SOL    HW224713   1.005   5.314   6.077  0.7509  0.2722 -0.0966
 7758SOL     OW24714   7.634   1.146  11.382  0.5175 -0.2296 -0.0875
 7758SOL    HW124715   7.603   1.228  11.420  0.1622 -1.0183  1.4108
 7758SOL    HW224716   7.729   1.147  11.395  0.4275 -0.3805  0.6590
 7759SOL     OW24717   6.134   4.961   5.557  0.1671  0.1914  0.5534
 7759SOL    HW124718   6.133   4.915   5.473 -0.6306  1.1209  0.0342
 7759SOL    HW224719   6.221   4.944   5.593  0.4467 -0.3850 -0.3731
 7760SOL     OW24720   1.257   5.314   7.080  0.3821  0.3250  0.4083
 7760SOL    HW124721   1.182   5.363   7.115 -0.4147  0.8399 -1.8625
 7760SOL    HW224722   1.333   5.371   7.097  0.2344  0.0520  2.2158
 7761SOL     OW24723   5.421   0.861   5.378 -0.9600 -0.7935  0.3691
 7761SOL    HW124724   5.429   0.936   5.437 -0.5519 -0.5423  0.0086
 7761SOL    HW224725   5.504   0.860   5.330 -0.4767 -2.1897  1.1793
 7762SOL     OW24726   2.751   2.183   3.391  0.2224  0.1610  0.0468
 7762SOL    HW124727   2.746   2.273   3.360  1.6313 -0.3971 -1.9774
 7762SOL    HW224728   2.809   2.139   3.329  0.4111 -1.9034  1.5774
 7763SOL     OW24729   0.680   0.602   5.512 -0.4710 -0.2613 -0.1734
 7763SOL    HW124730   0.752   0.646   5.556 -1.5330  2.2886 -0.8381
 7763SOL    HW224731   0.686   0.631   5.421 -0.8821 -2.0075 -0.8015
 7764SOL     OW24732   7.475   3.897   4.904 -0.1113  0.0898 -0.1010
 7764SOL    HW124733   7.475   3.945   4.988 -1.1916  3.3568 -1.7965
 7764SOL    HW224734   7.542   3.941   4.852  0.5887 -1.9467 -1.0226
 7765SOL     OW24735   2.939   3.366   2.133 -0.4446  0.2324  0.1216
 7765SOL    HW124736   2.963   3.340   2.222 -1.0495  0.0998  0.2497
 7765SOL    HW224737   2.971   3.294   2.078  0.0259  0.3638  0.2124
 7766SOL     OW24738   3.708   4.248   7.121 -0.5966 -0.5004 -0.4778
 7766SOL    HW124739   3.667   4.213   7.042 -2.6124  1.2579 -0.3128
 7766SOL    HW224740   3.679   4.339   7.124  2.5167  0.5925  0.3110
 7767SOL     OW24741   7.659   6.599   6.522 -0.0790 -0.0704 -0.1632
 7767SOL    HW124742   7.659   6.667   6.589 -1.0373 -0.1214 -0.0944
 7767SOL    HW224743   7.748   6.564   6.523  0.5621  1.4486 -0.4798
 7768SOL     OW24744   5.118   7.513   7.182  0.9072 -0.0105 -0.2653
 7768SOL    HW124745   5.032   7.500   7.222  1.1918 -2.8260 -0.4210
 7768SOL    HW224746   5.171   7.552   7.252 -0.0601  0.3304  0.3025
 7769SOL     OW24747   2.308   2.695   1.957 -0.4155  0.1121  0.5722
 7769SOL    HW124748   2.401   2.717   1.952 -0.6349  1.1088  0.5992
 7769SOL    HW224749   2.306   2.600   1.961  0.4326 -0.1790 -2.9399
 7770SOL     OW24750   3.803   5.384   5.562 -0.0983  0.4933  0.0033
 7770SOL    HW124751   3.710   5.361   5.554 -0.0574 -0.1290  1.1454
 7770SOL    HW224752   3.811   5.467   5.514 -1.1489  0.3322 -0.4765
 7771SOL     OW24753   7.753   1.935   6.861 -0.1507  0.0830 -0.0164
 7771SOL    HW124754   7.804   1.885   6.925  0.4330 -1.2371 -1.4553
 7771SOL    HW224755   7.746   2.023   6.899  0.6546 -0.4992  1.5740
 7772SOL     OW24756   2.224   7.727   7.147 -0.1728  0.0881 -0.2709
 7772SOL    HW124757   2.191   7.816   7.163 -0.6715 -0.2122  0.4311
 7772SOL    HW224758   2.156   7.686   7.094  0.8820  0.6712 -2.1306
 7773SOL     OW24759   2.436   1.269   7.096  0.4952  0.9485 -0.1247
 7773SOL    HW124760   2.467   1.338   7.155  1.2045  0.5763 -0.0504
 7773SOL    HW224761   2.345   1.291   7.079  0.3708  1.2253  0.8659
 7774SOL     OW24762   5.022   0.321   5.346 -0.1319  0.5157 -0.2815
 7774SOL    HW124763   4.976   0.279   5.273  0.5281 -0.1660 -0.3248
 7774SOL    HW224764   5.109   0.340   5.311  2.1411 -4.5689  1.6715
 7775SOL     OW24765   1.320   6.536   9.155  0.1638 -0.0864  0.2250
 7775SOL    HW124766   1.371   6.610   9.121 -0.3680 -0.5890 -1.7680
 7775SOL    HW224767   1.264   6.509   9.082 -0.3459 -1.8612  1.2071
 7776SOL     OW24768   4.894   5.285   2.874 -0.4652  0.6979 -0.4166
 7776SOL    HW124769   4.944   5.256   2.798 -0.9664 -0.7246 -0.2331
 7776SOL    HW224770   4.959   5.323   2.933  0.1938  0.1512 -0.7848
 7777SOL     OW24771   5.460   3.935   9.574  0.0725  0.1831 -0.2539
 7777SOL    HW124772   5.383   3.993   9.569 -0.6826 -0.8913 -1.7712
 7777SOL    HW224773   5.534   3.995   9.568 -0.4676  1.5127  3.5815
 7778SOL     OW24774   2.771   5.823   2.429 -0.4801 -0.2255 -0.0787
 7778SOL    HW124775   2.799   5.781   2.510 -0.5236 -0.5247 -0.2199
 7778SOL    HW224776   2.847   5.876   2.403  0.0018 -1.0984 -0.5037
 7779SOL     OW24777   2.698   2.773  10.339 -0.0832 -0.2841  0.4545
 7779SOL    HW124778   2.659   2.858  10.361  0.8403  0.0530  0.8236
 7779SOL    HW224779   2.712   2.777  10.245 -1.5298 -0.6693  0.1977
 7780SOL     OW24780   0.600   2.657   1.316 -0.7737  0.1283  0.3917
 7780SOL    HW124781   0.612   2.568   1.351  1.1089 -0.5032 -1.5810
 7780SOL    HW224782   0.648   2.713   1.376 -0.1093 -0.5116  0.4773
 7781SOL     OW24783   5.033   2.864  10.579  0.2474  0.0318  0.0134
 7781SOL    HW124784   5.110   2.843  10.632  0.4249 -0.1831 -0.3236
 7781SOL    HW224785   4.967   2.890  10.642  0.6651  0.4257  0.2937
 7782SOL     OW24786   3.602   4.871   2.627 -0.2079 -0.1261  0.0980
 7782SOL    HW124787   3.673   4.850   2.688 -1.5881  1.1638  2.3173
 7782SOL    HW224788   3.563   4.951   2.663 -2.0034 -0.1043 -1.7268
 7783SOL     OW24789   5.753   5.644   2.737  0.8640 -0.5489 -0.2056
 7783SOL    HW124790   5.777   5.678   2.650  2.1801 -0.0056  0.3412
 7783SOL    HW224791   5.777   5.551   2.733  0.7407 -0.5698 -0.4847
 7784SOL     OW24792   2.118   5.100  12.104 -0.7452  0.3082  0.5182
 7784SOL    HW124793   2.065   5.160  12.052 -1.9070 -0.5819  0.6383
 7784SOL    HW224794   2.131   5.024  12.047  1.2304  0.8589  0.1348
 7785SOL     OW24795   4.873   2.141   0.499  0.1276  0.5210 -0.5205
 7785SOL    HW124796   4.780   2.125   0.511 -0.0248  0.9497 -1.1049
 7785SOL    HW224797   4.916   2.073   0.551 -0.5002  1.0062  0.6639
 7786SOL     OW24798   6.012   1.920  11.836  0.0707  0.2976 -0.1053
 7786SOL    HW124799   5.927   1.883  11.812 -0.3181  0.3078  1.1415
 7786SOL    HW224800   6.004   2.013  11.816 -1.0207  0.7069  1.9350
 7787SOL     OW24801   7.382   0.680  10.842  0.7062  0.4334  0.0015
 7787SOL    HW124802   7.308   0.676  10.902  0.9544 -0.6243  0.2576
 7787SOL    HW224803   7.404   0.773  10.837  1.1730  0.4915  2.1693
 7788SOL     OW24804   2.386   6.850   6.500  0.2844  0.2144 -0.3752
 7788SOL    HW124805   2.392   6.839   6.595  0.9352  2.3198 -0.1230
 7788SOL    HW224806   2.448   6.785   6.465 -2.3649 -2.9628  0.3530
 7789SOL     OW24807   5.767   7.845  11.601 -0.1990  0.1994  0.5950
 7789SOL    HW124808   5.836   7.890  11.552  0.0956 -1.7887 -0.9698
 7789SOL    HW224809   5.791   7.752  11.596 -2.6706 -0.5061  0.4899
 7790SOL     OW24810   0.249   3.993   7.140  0.5432  0.1283 -0.5884
 7790SOL    HW124811   0.274   3.964   7.228 -0.4955 -2.2303 -1.0214
 7790SOL    HW224812   0.241   4.088   7.149  1.1912  0.0480  1.6702
 7791SOL     OW24813   7.629   4.550   8.491 -0.1102 -0.1135  0.5337
 7791SOL    HW124814   7.616   4.515   8.403 -0.9319 -0.5834  0.8305
 7791SOL    HW224815   7.694   4.492   8.531 -0.3492 -0.4018  0.5096
 7792SOL     OW24816   4.117   5.680   7.960  0.3354  0.3680 -0.7442
 7792SOL    HW124817   4.114   5.617   7.888  0.4876  0.4221 -0.7956
 7792SOL    HW224818   4.102   5.765   7.919 -2.4912  0.1490 -0.3969
 7793SOL     OW24819   1.110   4.148   5.295 -0.3298 -0.0797  0.2043
 7793SOL    HW124820   1.198   4.111   5.302 -0.1158  0.5063  0.6674
 7793SOL    HW224821   1.053   4.072   5.282  0.1809 -0.5067  0.4217
 7794SOL     OW24822   5.135   7.755   2.440  0.8174 -0.0324 -0.1222
 7794SOL    HW124823   5.073   7.685   2.460 -1.2201  1.4620 -0.7237
 7794SOL    HW224824   5.214   7.733   2.489 -1.0514 -0.7610  2.8310
 7795SOL     OW24825   2.812   7.874  11.445 -0.0982  0.8828 -0.1917
 7795SOL    HW124826   2.901   7.843  11.465 -0.3627 -0.0079 -0.3297
 7795SOL    HW224827   2.790   7.830  11.363 -1.7755 -1.3368  1.3243
 7796SOL     OW24828   2.447   4.560  10.266 -0.1700  0.2016  0.0189
 7796SOL    HW124829   2.363   4.597  10.293 -0.6115  0.8634 -2.0285
 7796SOL    HW224830   2.423   4.488  10.207  0.7029  0.0550 -0.1657
 7797SOL     OW24831   4.938   5.529   1.222 -0.2851  0.3479  0.0144
 7797SOL    HW124832   4.984   5.471   1.282  2.7715 -0.6255 -2.9557
 7797SOL    HW224833   4.888   5.471   1.166 -0.6086  0.9562 -0.3376
 7798SOL     OW24834   0.939   1.377  10.791  0.1141 -0.7344  0.1878
 7798SOL    HW124835   0.908   1.342  10.875  0.3392 -1.1972  0.0823
 7798SOL    HW224836   0.859   1.397  10.742 -0.0566  1.1743  1.1570
 7799SOL     OW24837   3.327   1.562   3.080 -0.1302 -0.2396 -0.0847
 7799SOL    HW124838   3.245   1.559   3.031 -0.4129  0.8789  0.2876
 7799SOL    HW224839   3.324   1.646   3.126  1.4721  0.0901 -0.5237
 7800SOL     OW24840   3.718   5.704   4.837  0.1452  0.0031  0.1711
 7800SOL    HW124841   3.659   5.686   4.911  0.7775 -0.4748  0.5794
 7800SOL    HW224842   3.673   5.668   4.761  0.6321 -1.9354  0.7349
 7801SOL     OW24843   0.928   3.587   5.359  0.3885  0.0394 -0.0066
 7801SOL    HW124844   0.976   3.669   5.343 -2.1959  1.6487 -0.0944
 7801SOL    HW224845   0.909   3.554   5.271 -0.4138  0.5199 -0.0202
 7802SOL     OW24846   3.364   4.773   4.017  0.2992 -0.2211  0.4317
 7802SOL    HW124847   3.333   4.697   4.067  0.0952 -1.2754 -1.2128
 7802SOL    HW224848   3.455   4.783   4.042  0.4288 -1.2523  0.4269
 7803SOL     OW24849   4.744   1.946   6.292  0.2906 -0.5777 -0.1217
 7803SOL    HW124850   4.658   1.957   6.333  0.3083  0.3758 -0.3075
 7803SOL    HW224851   4.798   2.013   6.335  0.4116  0.1844 -1.4128
 7804SOL     OW24852   5.141   5.668   1.786 -0.5848  0.1749 -0.2263
 7804SOL    HW124853   5.066   5.724   1.766  0.0012  1.2360  0.4086
 7804SOL    HW224854   5.213   5.707   1.736 -0.2724 -0.3392 -0.1821
 7805SOL     OW24855   6.497   4.189  11.109  0.0099  0.0187 -0.0201
 7805SOL    HW124856   6.592   4.192  11.104 -0.0674 -0.0415 -2.7768
 7805SOL    HW224857   6.472   4.276  11.143  0.9887  0.4386 -0.3520
 7806SOL     OW24858   0.206   3.847   1.674 -0.6633 -0.7140  0.2348
 7806SOL    HW124859   0.115   3.846   1.704 -0.7004  0.8482  0.2827
 7806SOL    HW224860   0.219   3.937   1.643  1.6538 -0.0455  2.7634
 7807SOL     OW24861   7.290   1.114   0.297  0.9099 -0.0087 -0.2815
 7807SOL    HW124862   7.287   1.084   0.388 -1.1128 -0.2603 -0.3809
 7807SOL    HW224863   7.235   1.052   0.249  2.6010 -0.3724 -1.8631
 7808SOL     OW24864   2.769   3.475   3.900 -0.2318 -0.3081 -0.2074
 7808SOL    HW124865   2.794   3.554   3.852  1.5255 -0.8246 -0.2272
 7808SOL    HW224866   2.673   3.477   3.902 -0.2420  1.5311 -0.6668
 7809SOL     OW24867   3.597   5.742   8.013  0.0246 -0.8991  0.3801
 7809SOL    HW124868   3.677   5.743   7.961 -0.4396  1.9402 -0.4717
 7809SOL    HW224869   3.625   5.770   8.100 -0.1731  2.1785 -0.4185
 7810SOL     OW24870   5.439   7.703   4.444 -0.1555 -0.4909  0.4480
 7810SOL    HW124871   5.350   7.722   4.414  0.2318  3.0495  1.0997
 7810SOL    HW224872   5.490   7.693   4.364 -0.6539  0.2195  0.0333
 7811SOL     OW24873   3.271   3.300   4.732 -0.0086  0.3463  0.8184
 7811SOL    HW124874   3.188   3.347   4.723  1.4231  2.9754  0.3418
 7811SOL    HW224875   3.297   3.313   4.823  0.3417  0.3880  0.7166
 7812SOL     OW24876   0.125   4.718   4.461 -0.2901 -0.3846 -0.1728
 7812SOL    HW124877   0.115   4.785   4.393  1.0601 -0.9348 -0.9643
 7812SOL    HW224878   0.177   4.760   4.529  1.3716 -0.8475 -1.0891
 7813SOL     OW24879   2.986   5.298   7.820  0.3516  0.0456 -0.0030
 7813SOL    HW124880   3.060   5.276   7.876 -1.1840 -1.8910  1.4233
 7813SOL    HW224881   2.937   5.216   7.811 -1.1951  1.0546 -1.5525
 7814SOL     OW24882   5.439   4.724  12.380  0.0245  0.1594 -0.0054
 7814SOL    HW124883   5.457   4.812  12.347 -1.0076  0.1919 -0.5270
 7814SOL    HW224884   5.504   4.710  12.450  0.7809  0.9672 -0.5336
 7815SOL     OW24885   3.354   0.466   3.927  0.5758  0.4923  0.3971
 7815SOL    HW124886   3.379   0.480   4.019  0.7006  2.0879  0.1538
 7815SOL    HW224887   3.400   0.536   3.879  1.0577 -0.7238 -0.9903
 7816SOL     OW24888   0.606   1.626   8.482 -0.5859 -0.0397  0.0929
 7816SOL    HW124889   0.578   1.714   8.458  1.5542  0.3725 -1.0926
 7816SOL    HW224890   0.525   1.574   8.477 -1.6326  1.5545 -0.5790
 7817SOL     OW24891   0.797   3.571  11.179  0.3409 -0.0802  0.1234
 7817SOL    HW124892   0.809   3.654  11.133  2.4791 -0.0159  0.7002
 7817SOL    HW224893   0.845   3.507  11.127 -0.2356 -0.7217  0.3561
 7818SOL     OW24894   0.938   3.521   7.708 -0.3269  0.1774 -0.2517
 7818SOL    HW124895   0.976   3.448   7.659 -2.8689 -1.6743  0.3670
 7818SOL    HW224896   0.923   3.589   7.642  0.8908 -0.3044 -1.0696
 7819SOL     OW24897   3.459   2.917   6.129  0.4957  0.6371  0.0665
 7819SOL    HW124898   3.549   2.905   6.100  0.7920  0.6172  0.9866
 7819SOL    HW224899   3.465   2.967   6.210 -0.1880 -0.9066  1.1190
 7820SOL     OW24900   1.638   2.248  10.966 -0.3101 -0.0882  0.0913
 7820SOL    HW124901   1.664   2.157  10.981  0.1543 -0.0901 -0.6630
 7820SOL    HW224902   1.544   2.243  10.948 -1.1679  0.0269  3.7645
 7821SOL     OW24903   3.155   1.619   4.235 -0.3193 -0.7340  0.2599
 7821SOL    HW124904   3.100   1.541   4.225  0.9035 -1.4843 -1.0122
 7821SOL    HW224905   3.144   1.644   4.327 -3.6768 -0.0992 -0.1878
 7822SOL     OW24906   6.789   6.216   4.514 -0.5259 -0.0723  0.8340
 7822SOL    HW124907   6.873   6.222   4.560  0.9375  1.4799 -1.7998
 7822SOL    HW224908   6.769   6.122   4.513  1.3196 -0.5156  1.2933
 7823SOL     OW24909   7.558   1.694  10.322 -0.4724  0.5245 -0.2114
 7823SOL    HW124910   7.574   1.708  10.415  0.8143  0.6036 -0.4236
 7823SOL    HW224911   7.629   1.741  10.278 -0.8125  0.1267 -1.2191
 7824SOL     OW24912   7.219   4.766   7.234  0.1286  0.3300 -0.2693
 7824SOL    HW124913   7.227   4.690   7.291 -0.5026  1.1206  0.9112
 7824SOL    HW224914   7.290   4.756   7.171  0.5750 -0.7949  0.3764
 7825SOL     OW24915   4.542   5.937   7.177  0.1199  0.1419 -0.1134
 7825SOL    HW124916   4.486   5.890   7.115  1.2561 -0.3348 -0.8058
 7825SOL    HW224917   4.628   5.897   7.168  0.2096 -0.3506  2.2306
 7826SOL     OW24918   1.275   1.888   3.764 -0.1599  0.1328 -0.1251
 7826SOL    HW124919   1.326   1.959   3.725  0.5428 -1.0049 -1.3310
 7826SOL    HW224920   1.185   1.903   3.732 -0.0900  0.6714 -0.0834
 7827SOL     OW24921   5.190   1.203  10.647 -0.6999 -0.0024 -0.5049
 7827SOL    HW124922   5.260   1.257  10.683 -0.9565 -0.5531  0.9080
 7827SOL    HW224923   5.131   1.265  10.604 -0.4997  0.7387  0.2628
 7828SOL     OW24924   2.979   6.168   3.703 -0.3917  0.7935 -0.3117
 7828SOL    HW124925   3.074   6.160   3.706 -0.3102  1.8682  0.7455
 7828SOL    HW224926   2.947   6.077   3.711  0.5364  0.4987  0.2178
 7829SOL     OW24927   6.465   5.015   8.452 -0.1775  0.4238  0.2539
 7829SOL    HW124928   6.370   5.028   8.455 -0.4625 -1.4599  0.6556
 7829SOL    HW224929   6.496   5.044   8.538 -1.1613 -3.5622  2.2331
 7830SOL     OW24930   2.481   2.503   9.867  0.6276 -0.1981  0.3376
 7830SOL    HW124931   2.473   2.550   9.784  1.4059 -0.0685  0.3339
 7830SOL    HW224932   2.575   2.503   9.886  0.5320 -0.8950  0.8326
 7831SOL     OW24933   3.267   4.781   5.217 -0.1540 -0.3380  0.0612
 7831SOL    HW124934   3.276   4.875   5.231 -0.7166  0.0520 -1.8669
 7831SOL    HW224935   3.201   4.773   5.148 -1.9790 -2.2815  1.8889
 7832SOL     OW24936   6.324   2.193   1.967 -0.1510  0.1077 -0.1071
 7832SOL    HW124937   6.287   2.241   1.893  0.2473 -1.4139 -1.3601
 7832SOL    HW224938   6.251   2.143   2.002 -0.1333  0.1030 -0.0765
 7833SOL     OW24939   5.809   4.573  10.671  0.3342  0.2529 -0.1485
 7833SOL    HW124940   5.785   4.513  10.601  1.1881  1.9162 -1.9377
 7833SOL    HW224941   5.727   4.586  10.720 -0.6586  0.2061 -1.7332
 7834SOL     OW24942   4.965   6.585   6.916  0.2752  0.6580 -0.7287
 7834SOL    HW124943   5.053   6.569   6.949 -0.6200 -0.0501  1.4838
 7834SOL    HW224944   4.952   6.679   6.927 -0.0409  0.4272  1.2003
 7835SOL     OW24945   0.370   0.390   6.697 -0.0881 -0.2420  0.0222
 7835SOL    HW124946   0.444   0.330   6.706  0.0025 -0.1976 -0.3778
 7835SOL    HW224947   0.321   0.356   6.622 -1.0071 -0.8237  0.8605
 7836SOL     OW24948   1.432   6.634   8.004  0.3456  0.7444  0.2210
 7836SOL    HW124949   1.349   6.667   7.971  0.2013  0.5404  0.3807
 7836SOL    HW224950   1.410   6.552   8.047  0.7368  0.3372 -0.3446
 7837SOL     OW24951   5.925   3.099   9.934  0.6464 -0.1639  0.7361
 7837SOL    HW124952   5.972   3.180   9.914  0.4104 -0.3355 -0.5608
 7837SOL    HW224953   5.897   3.066   9.849 -1.4101 -0.3362  1.4316
 7838SOL     OW24954   5.737   3.617  11.281 -0.3116  0.5214 -0.3268
 7838SOL    HW124955   5.787   3.693  11.250  0.1788  1.1210  1.7759
 7838SOL    HW224956   5.735   3.627  11.376 -0.7531 -1.7952 -0.0402
 7839SOL     OW24957   0.490   7.833   3.777 -0.5054  0.1483 -0.1187
 7839SOL    HW124958   0.556   7.836   3.847 -0.7061  1.6356  0.0503
 7839SOL    HW224959   0.540   7.823   3.697  0.0496  2.1258 -0.0736
 7840SOL     OW24960   5.285   4.479   6.538  0.6187 -0.8147 -0.2705
 7840SOL    HW124961   5.253   4.566   6.512 -0.7908 -1.6558 -1.4669
 7840SOL    HW224962   5.381   4.489   6.540  0.5301  0.5421 -1.1784
 7841SOL     OW24963   2.378   6.215   0.669  0.0755 -0.1344 -0.7170
 7841SOL    HW124964   2.352   6.150   0.735  1.4661 -0.5914 -0.5726
 7841SOL    HW224965   2.474   6.208   0.666  0.2506  1.8549 -0.7760
 7842SOL     OW24966   3.336   6.034   8.551  0.8375  0.6653 -0.2367
 7842SOL    HW124967   3.282   6.080   8.486 -0.9907 -1.5570 -0.4434
 7842SOL    HW224968   3.327   5.942   8.528  1.3043 -0.1074  2.3331
 7843SOL     OW24969   6.969   7.909   6.085  0.2234  0.3926  0.1787
 7843SOL    HW124970   6.941   7.875   6.170 -1.3212  2.0341  0.3792
 7843SOL    HW224971   7.063   7.923   6.095  0.5958 -1.9740  0.6723
 7844SOL     OW24972   1.438   4.985   7.405  0.1466 -0.1039  0.2731
 7844SOL    HW124973   1.519   4.943   7.435  0.3494 -0.1803 -0.3518
 7844SOL    HW224974   1.369   4.925   7.430  0.4165 -0.7149 -0.4120
 7845SOL     OW24975   2.780   4.936  12.342 -0.0143 -0.0758 -0.1242
 7845SOL    HW124976   2.815   5.020  12.314 -0.2180 -0.0139 -0.1934
 7845SOL    HW224977   2.816   4.873  12.279 -2.1015  0.3197 -1.8143
 7846SOL     OW24978   2.738   0.326   9.337 -0.2575 -0.4105  0.0700
 7846SOL    HW124979   2.746   0.251   9.278  0.0029 -0.4590  0.1652
 7846SOL    HW224980   2.821   0.328   9.385  0.6436  1.2360 -1.4582
 7847SOL     OW24981   4.918   0.627   1.808  0.8386 -0.2555  0.5698
 7847SOL    HW124982   4.904   0.664   1.721  1.2458  0.0455  0.6252
 7847SOL    HW224983   4.833   0.632   1.851  0.9300  0.8706  0.6624
 7848SOL     OW24984   2.767   0.905   0.154  0.2436  0.3055 -0.0357
 7848SOL    HW124985   2.703   0.834   0.157  1.9352 -1.3031  0.4430
 7848SOL    HW224986   2.795   0.915   0.245 -0.2450  1.9148 -0.0305
 7849SOL     OW24987   3.336   7.111   8.666  0.2550 -0.1944 -0.4487
 7849SOL    HW124988   3.418   7.078   8.630 -0.4960 -0.9696 -1.4944
 7849SOL    HW224989   3.363   7.170   8.736  1.7153  0.1033 -1.2276
 7850SOL     OW24990   6.510   0.074  11.310  0.0399  0.2458  0.1495
 7850SOL    HW124991   6.423   0.098  11.276 -0.3381  0.3744  1.1904
 7850SOL    HW224992   6.517   0.120  11.393  1.3560  0.7056 -0.1805
 7851SOL     OW24993   0.483   1.028   2.178 -0.7609 -0.1981 -0.3666
 7851SOL    HW124994   0.547   1.026   2.107 -2.5110 -0.6203 -2.0378
 7851SOL    HW224995   0.515   0.963   2.241  0.4327 -0.4084 -1.1480
 7852SOL     OW24996   0.494   3.020  10.176 -0.3363 -0.3440 -0.0115
 7852SOL    HW124997   0.501   3.010  10.271 -0.3672  0.9745  0.1502
 7852SOL    HW224998   0.575   3.063  10.150  0.0595 -1.4657 -0.7285
 7853SOL     OW24999   3.170   7.261   3.973  0.2211  0.1569 -0.6395
 7853SOL    HW125000   3.172   7.319   4.049 -1.9671 -1.5313  0.8170
 7853SOL    HW225001   3.195   7.175   4.007  0.1646 -0.4475 -2.0593
 7854SOL     OW25002   3.177   0.441  10.987 -0.4959 -0.1546 -0.1689
 7854SOL    HW125003   3.111   0.435  10.918  1.2417 -0.4847 -1.8857
 7854SOL    HW225004   3.261   0.431  10.942  0.6929 -1.7716  2.1511
 7855SOL     OW25005   0.575   0.320  11.715  0.5899 -0.0878 -0.5260
 7855SOL    HW125006   0.631   0.330  11.792  2.4748 -1.5787 -1.6091
 7855SOL    HW225007   0.556   0.226  11.711  0.2314  0.0164 -1.6853
 7856SOL     OW25008   0.404   4.083   5.430 -0.5489  0.2816 -0.1817
 7856SOL    HW125009   0.345   4.142   5.478  0.1862 -0.0825  1.2510
 7856SOL    HW225010   0.352   4.004   5.416 -0.4322 -0.0395  1.0727
 7857SOL     OW25011   0.773   6.816   1.387  0.0199 -0.0160  0.1077
 7857SOL    HW125012   0.764   6.816   1.483  0.9283 -0.7519  0.2124
 7857SOL    HW225013   0.867   6.825   1.373 -0.2137  1.3277 -0.7583
 7858SOL     OW25014   0.244   4.580   9.824  0.1650 -0.6153 -0.6427
 7858SOL    HW125015   0.169   4.608   9.772 -0.9138 -0.8753  0.7050
 7858SOL    HW225016   0.320   4.596   9.768 -0.7372  1.2464 -1.4213
 7859SOL     OW25017   0.308   0.051   9.346 -0.0026  0.4003  0.1816
 7859SOL    HW125018   0.320   0.138   9.384  0.4207  1.0034 -1.2793
 7859SOL    HW225019   0.256   0.004   9.412 -0.2104  1.7315  1.0151
 7860SOL     OW25020   3.849   6.842   8.805 -0.0770  0.4629  0.1879
 7860SOL    HW125021   3.920   6.904   8.820 -0.8004  1.3369  0.0946
 7860SOL    HW225022   3.803   6.875   8.728  0.5462 -1.1671 -0.9307
 7861SOL     OW25023   7.909   3.068   9.578 -0.3371 -0.0022  0.4948
 7861SOL    HW125024   7.872   3.010   9.644  0.2049 -0.4111  0.4443
 7861SOL    HW225025   7.998   3.035   9.564 -0.8432 -0.6723 -1.3207
 7862SOL     OW25026   3.831   0.671  10.947  0.0906 -0.2978  0.5660
 7862SOL    HW125027   3.861   0.757  10.917 -2.1468  0.9243  1.6292
 7862SOL    HW225028   3.838   0.614  10.870 -0.2194  1.3166 -0.6889
 7863SOL     OW25029   0.172   7.304  11.475  0.1440 -0.5382 -0.3206
 7863SOL    HW125030   0.130   7.230  11.519 -0.6769 -0.8106 -1.5106
 7863SOL    HW225031   0.264   7.298  11.501 -0.1808 -1.1105  0.7582
 7864SOL     OW25032   6.061   4.889   1.883  0.0138  0.0825  0.1765
 7864SOL    HW125033   6.041   4.923   1.796 -0.3103  0.3979  0.3707
 7864SOL    HW225034   5.976   4.865   1.920  0.1598 -0.1489  0.3676
 7865SOL     OW25035   4.473   6.635   5.961  0.5563  0.3974  0.1299
 7865SOL    HW125036   4.421   6.657   6.038  0.7582  0.8865  0.1314
 7865SOL    HW225037   4.550   6.591   5.996  0.9995  1.2663  0.2718
 7866SOL     OW25038   7.204   2.326   7.942  0.1625 -0.0956 -0.8347
 7866SOL    HW125039   7.207   2.233   7.918  0.0054 -0.0694 -0.9571
 7866SOL    HW225040   7.198   2.326   8.037 -1.1497 -0.2369 -0.9033
 7867SOL     OW25041   5.121   3.476   5.555  0.2513  0.1054 -0.0510
 7867SOL    HW125042   5.185   3.408   5.577  0.4357  0.6544  1.1746
 7867SOL    HW225043   5.175   3.550   5.525  0.0936  0.0251 -0.5502
 7868SOL     OW25044   1.993   2.430   0.369 -0.0994 -0.2480  0.1331
 7868SOL    HW125045   2.061   2.488   0.403  0.0461 -0.8937  0.9907
 7868SOL    HW225046   1.950   2.395   0.447 -1.5605  0.3032 -0.3976
 7869SOL     OW25047   5.618   1.947  11.019 -0.0419  0.0417  0.0516
 7869SOL    HW125048   5.663   1.863  11.012 -3.9438 -2.1213 -3.0976
 7869SOL    HW225049   5.675   2.009  10.974  0.6398 -2.1775 -2.3911
 7870SOL     OW25050   3.883   1.760   3.735 -0.2010  0.7033 -0.2006
 7870SOL    HW125051   3.800   1.754   3.688 -0.3370 -0.2860  0.1485
 7870SOL    HW225052   3.859   1.749   3.827  0.4722 -1.1382 -0.2143
 7871SOL     OW25053   3.588   2.001   5.614 -0.3048 -0.0768  0.3080
 7871SOL    HW125054   3.653   2.048   5.666  0.1818  0.1015 -0.4494
 7871SOL    HW225055   3.631   1.918   5.592 -0.4806 -0.1170  0.1171
 7872SOL     OW25056   6.990   5.803   7.021  0.1568  0.3310 -0.1440
 7872SOL    HW125057   6.953   5.761   7.098  0.8208  0.2088  0.1159
 7872SOL    HW225058   7.084   5.792   7.031  0.2055 -1.2135 -1.8411
 7873SOL     OW25059   0.032   6.463   0.524 -0.4330 -0.5195  0.6062
 7873SOL    HW125060   0.087   6.478   0.602 -0.6298 -1.3628  0.9156
 7873SOL    HW225061   0.018   6.551   0.488 -1.4508  0.0699  2.2935
 7874SOL     OW25062   6.519   0.497  12.158  0.4766  0.2028 -0.1750
 7874SOL    HW125063   6.556   0.499  12.246  0.5070  1.7209 -0.1925
 7874SOL    HW225064   6.565   0.427  12.114  1.0540 -0.0299  0.7660
 7875SOL     OW25065   5.890   7.922   9.054  0.2631 -0.2327 -0.2909
 7875SOL    HW125066   5.909   7.835   9.089 -0.5205 -0.9622 -1.6311
 7875SOL    HW225067   5.966   7.944   9.000  0.4697 -0.0650  0.0635
 7876SOL     OW25068   4.175   6.875  11.199  0.2040 -0.1466  0.2404
 7876SOL    HW125069   4.172   6.787  11.161 -1.3063 -0.0093 -0.0398
 7876SOL    HW225070   4.221   6.928  11.134 -1.7492 -0.0626 -1.1871
 7877SOL     OW25071   7.576   1.104   0.235  0.5618  0.3178  0.1044
 7877SOL    HW125072   7.631   1.047   0.288  0.7348  0.5094  0.1315
 7877SOL    HW225073   7.487   1.089   0.269  0.4665 -0.6751 -0.5552
 7878SOL     OW25074   0.688   2.121   6.953  0.0699 -0.5898  0.2209
 7878SOL    HW125075   0.761   2.115   6.892 -0.5463 -1.4192 -0.4638
 7878SOL    HW225076   0.613   2.086   6.905 -0.3113 -1.8378  1.6215
 7879SOL     OW25077   5.788   4.657  11.899 -0.4896 -0.6454  0.5819
 7879SOL    HW125078   5.882   4.648  11.917 -0.5945 -1.0651  0.9381
 7879SOL    HW225079   5.748   4.658  11.986 -0.8517 -0.8808  0.4165
 7880SOL     OW25080   1.386   4.081   3.621 -0.1509 -0.3152 -0.7801
 7880SOL    HW125081   1.294   4.087   3.647 -0.1432 -0.3664 -0.7398
 7880SOL    HW225082   1.424   4.163   3.650  0.5499 -1.5511  2.1346
 7881SOL     OW25083   5.446   2.326   8.478  0.2367 -0.6191  0.0613
 7881SOL    HW125084   5.488   2.258   8.531  2.1779 -1.1512 -1.9943
 7881SOL    HW225085   5.475   2.408   8.517  2.8742 -0.9831 -0.9152
 7882SOL     OW25086   3.034   7.273   8.618 -0.2778 -0.1042 -0.0565
 7882SOL    HW125087   2.997   7.301   8.534  2.2231  1.4275 -0.7674
 7882SOL    HW225088   2.992   7.328   8.683  1.4719  2.5109 -0.9862
 7883SOL     OW25089   5.431   1.133  11.204  0.1518  0.8125 -0.3715
 7883SOL    HW125090   5.442   1.182  11.286  1.8107 -2.7189  1.7804
 7883SOL    HW225091   5.342   1.100  11.208  0.5049 -0.0796  0.5320
 7884SOL     OW25092   1.085   4.018  12.071  1.1881 -0.5196  0.2904
 7884SOL    HW125093   1.115   3.959  12.140  0.0669 -0.0069  1.2468
 7884SOL    HW225094   1.090   4.105  12.111 -0.9285 -0.3562  0.2943
 7885SOL     OW25095   2.115   6.796  10.453 -0.4294 -0.2521 -0.4043
 7885SOL    HW125096   2.051   6.842  10.399 -0.3049 -1.3838 -1.5403
 7885SOL    HW225097   2.198   6.808  10.408  0.2211  1.2295  1.0750
 7886SOL     OW25098   4.734   1.910   8.289  0.0836 -0.3632  0.5543
 7886SOL    HW125099   4.660   1.875   8.240  0.3797  0.1394 -0.2649
 7886SOL    HW225100   4.700   1.923   8.378 -0.5464 -0.9817  0.4075
 7887SOL     OW25101   5.052   0.871   6.832 -0.9180 -0.3414  0.2439
 7887SOL    HW125102   5.098   0.955   6.843  0.1810 -0.7588 -0.9330
 7887SOL    HW225103   5.122   0.807   6.818 -1.8182 -1.1423 -0.7620
 7888SOL     OW25104   7.240   5.980   5.800  0.4228  0.0138 -0.2471
 7888SOL    HW125105   7.281   6.052   5.752 -1.6830  0.9474 -0.7291
 7888SOL    HW225106   7.156   5.967   5.757 -0.9441 -0.1101  2.2802
 7889SOL     OW25107   1.932   4.470   6.970 -0.2524 -0.3000  0.6851
 7889SOL    HW125108   1.844   4.505   6.983 -0.4375 -0.8228  0.8459
 7889SOL    HW225109   1.991   4.540   7.000 -0.6082  0.0104  0.6658
 7890SOL     OW25110   6.876   5.121   0.371 -0.0986 -0.0942 -0.5493
 7890SOL    HW125111   6.835   5.198   0.409 -0.6191  0.4999 -2.2041
 7890SOL    HW225112   6.969   5.143   0.365  0.1093 -0.4824  0.9811
 7891SOL     OW25113   6.778   3.594   1.169  0.7746 -0.3146  0.0509
 7891SOL    HW125114   6.866   3.632   1.166  0.5684  0.1936  0.2193
 7891SOL    HW225115   6.754   3.595   1.261  0.4789 -0.1753 -0.0243
 7892SOL     OW25116   6.852   2.968   8.663 -0.6020  0.3263 -0.5464
 7892SOL    HW125117   6.915   2.920   8.609  0.8105  0.5057  0.8654
 7892SOL    HW225118   6.785   2.998   8.601 -0.1699 -1.2413 -1.8477
 7893SOL     OW25119   5.011   0.000   1.184 -0.4723  0.2948 -0.0792
 7893SOL    HW125120   5.094  -0.006   1.137  1.6114 -0.8747  3.3716
 7893SOL    HW225121   5.034   0.044   1.266 -3.4456  0.5048  0.7352
 7894SOL     OW25122   6.077   5.781   3.037 -0.0506 -0.0351 -0.2138
 7894SOL    HW125123   6.029   5.864   3.041 -0.0145 -0.0592  1.3468
 7894SOL    HW225124   6.055   5.746   2.951 -3.5480 -0.4218  0.6670
 7895SOL     OW25125   1.875   2.985   2.067 -0.3656 -0.1775  0.1061
 7895SOL    HW125126   1.876   2.945   1.981  0.1295 -1.5082  0.7119
 7895SOL    HW225127   1.782   2.994   2.089 -0.4838 -0.1787 -0.4011
 7896SOL     OW25128   4.359   0.437   0.319 -0.2973  0.4640  0.2402
 7896SOL    HW125129   4.346   0.516   0.372  0.4020  1.8498 -1.5305
 7896SOL    HW225130   4.364   0.470   0.229 -0.5428 -1.6886 -0.6061
 7897SOL     OW25131   6.948   1.273  12.302  0.0887  0.8544  0.6519
 7897SOL    HW125132   6.854   1.270  12.284 -0.1241 -0.4151  1.7953
 7897SOL    HW225133   6.989   1.244  12.220 -0.6322 -0.5327  0.7499
 7898SOL     OW25134   6.388   6.803   6.674  0.0468 -0.2488 -0.0036
 7898SOL    HW125135   6.419   6.778   6.761  2.5589  2.9789  0.2231
 7898SOL    HW225136   6.308   6.853   6.691 -0.1839 -0.7248  0.3185
 7899SOL     OW25137   0.149   6.504  11.943 -0.1795  0.3851  0.5226
 7899SOL    HW125138   0.073   6.550  11.979  0.0729  2.1879 -1.0766
 7899SOL    HW225139   0.216   6.510  12.011 -0.7809  0.6784  1.0930
 7900SOL     OW25140   1.486   5.724  10.128  0.6449 -0.3192  0.2090
 7900SOL    HW125141   1.481   5.763  10.215  0.3714 -1.5996  0.7916
 7900SOL    HW225142   1.460   5.795  10.068  1.7006  0.8403  1.0693
 7901SOL     OW25143   4.797   5.576   2.449  0.0244 -0.4607 -0.2051
 7901SOL    HW125144   4.865   5.524   2.493  1.6126  2.6573  1.3845
 7901SOL    HW225145   4.835   5.596   2.363 -0.4037 -1.4947 -0.6495
 7902SOL     OW25146   2.760   4.931  11.118 -0.6807 -0.4313 -0.1467
 7902SOL    HW125147   2.726   4.843  11.098 -0.6322 -1.1248  2.4584
 7902SOL    HW225148   2.701   4.965  11.185 -1.3580  2.0556 -1.8685
 7903SOL     OW25149   6.089   3.133   7.844 -0.1956  0.0525 -0.3400
 7903SOL    HW125150   6.120   3.122   7.754 -0.2593 -1.5816 -0.1806
 7903SOL    HW225151   6.139   3.069   7.895  0.1896  1.2944  0.8950
 7904SOL     OW25152   2.271   6.506  11.416 -0.0162 -0.4961  0.4984
 7904SOL    HW125153   2.182   6.490  11.448  0.4383  0.2172  2.2583
 7904SOL    HW225154   2.301   6.421  11.385 -1.6102 -0.5690 -1.0082
 7905SOL     OW25155   3.869   2.849   1.051  0.0848  0.2055 -0.0667
 7905SOL    HW125156   3.892   2.936   1.019 -2.2980  1.3418  1.0600
 7905SOL    HW225157   3.821   2.809   0.978 -2.3837  1.4809  0.7679
 7906SOL     OW25158   2.084   6.863  11.449  0.1754  0.4794 -0.1258
 7906SOL    HW125159   2.007   6.871  11.392 -0.6535 -0.1993  0.8559
 7906SOL    HW225160   2.047   6.848  11.537  1.4279 -0.3130  0.2944
 7907SOL     OW25161   0.253   0.065   4.103 -0.0043 -0.1026  0.8016
 7907SOL    HW125162   0.239  -0.030   4.100 -2.2078  0.1893 -1.8414
 7907SOL    HW225163   0.347   0.074   4.121  0.8694 -2.8643 -1.4705
 7908SOL     OW25164   5.887   3.361  11.260 -0.3634  0.0827  0.0800
 7908SOL    HW125165   5.845   3.433  11.308  0.1765  0.8320 -0.5513
 7908SOL    HW225166   5.965   3.401  11.221 -0.7591 -0.5200 -1.3831
 7909SOL     OW25167   7.593   3.534   5.548 -0.0840  0.2828  0.4502
 7909SOL    HW125168   7.678   3.550   5.507  0.1630  1.8308  1.4588
 7909SOL    HW225169   7.529   3.559   5.481  0.2375 -0.8332 -0.2932
 7910SOL     OW25170   3.005   2.576  11.604  0.1328  0.0034  0.3696
 7910SOL    HW125171   3.075   2.535  11.653  0.8319  0.8604  0.1147
 7910SOL    HW225172   2.940   2.601  11.671  0.6431  0.3172  0.7520
 7911SOL     OW25173   3.002   2.102   4.572 -0.0071  0.2414  0.0225
 7911SOL    HW125174   2.981   2.183   4.527 -0.1066 -0.3385 -1.0206
 7911SOL    HW225175   3.096   2.109   4.591  0.4216 -0.1415 -1.7250
 7912SOL     OW25176   7.400   2.818   1.512  0.2692  0.1596  0.7848
 7912SOL    HW125177   7.430   2.893   1.562  3.2356 -0.0237 -0.4970
 7912SOL    HW225178   7.397   2.849   1.422 -1.5980 -0.4604  0.5837
 7913SOL     OW25179   2.097   5.847   0.911 -0.0797 -0.7280  0.0394
 7913SOL    HW125180   2.006   5.846   0.939 -0.5064 -1.3131 -1.2942
 7913SOL    HW225181   2.130   5.933   0.935 -0.6718 -0.8755  1.4613
 7914SOL     OW25182   6.030   1.442   1.504 -0.4054  0.1475 -0.1461
 7914SOL    HW125183   6.000   1.429   1.593  0.0943  0.9692  0.1519
 7914SOL    HW225184   5.951   1.462   1.454 -0.5455  0.8911  0.3529
 7915SOL     OW25185   4.574   2.369  10.985 -0.0772  0.0243  0.0006
 7915SOL    HW125186   4.572   2.347  11.078  0.8075 -1.7814 -0.3645
 7915SOL    HW225187   4.484   2.395  10.965 -0.3661  0.0623  1.2646
 7916SOL     OW25188   5.138   1.035  10.363  0.4750  0.2609  0.0375
 7916SOL    HW125189   5.186   0.971  10.416  0.5075 -0.9745 -1.4212
 7916SOL    HW225190   5.196   1.054  10.290  0.0401  1.2290 -0.0714
 7917SOL     OW25191   4.368   5.657   1.574  0.6777  0.3000 -0.1406
 7917SOL    HW125192   4.413   5.586   1.621  1.3700  0.6073 -0.3263
 7917SOL    HW225193   4.434   5.689   1.512  0.5912  1.5666  0.4131
 7918SOL     OW25194   5.724   2.087   4.497  0.3086 -0.4519 -0.4086
 7918SOL    HW125195   5.635   2.056   4.480  0.2923 -0.6517  0.0204
 7918SOL    HW225196   5.769   2.012   4.536  0.5267 -0.2068 -0.1770
 7919SOL     OW25197   6.270   7.563   1.816  0.0650  0.2869 -0.1222
 7919SOL    HW125198   6.341   7.544   1.877  0.3092 -0.7047 -0.6946
 7919SOL    HW225199   6.260   7.482   1.765 -0.8714  0.7231 -0.6494
 7920SOL     OW25200   7.630   0.265   1.341  0.6975  0.4157  0.2683
 7920SOL    HW125201   7.714   0.303   1.316  0.2281  0.2075 -1.9106
 7920SOL    HW225202   7.577   0.272   1.261 -1.3087  0.4003  1.5223
 7921SOL     OW25203   7.601   4.250   7.181  0.2621 -0.5588 -0.0604
 7921SOL    HW125204   7.508   4.229   7.184 -0.2460  1.5863  0.5694
 7921SOL    HW225205   7.615   4.309   7.255  1.8546  0.1232 -0.8551
 7922SOL     OW25206   1.455   2.340   6.528  0.4223  0.0301  0.5555
 7922SOL    HW125207   1.463   2.416   6.471  1.1647 -0.6605 -0.2845
 7922SOL    HW225208   1.361   2.333   6.546  0.2659  0.7022  0.0414
 7923SOL     OW25209   6.274   3.118  12.294  0.0204  0.3449 -0.1061
 7923SOL    HW125210   6.256   3.039  12.243 -0.7483  0.8692 -0.6730
 7923SOL    HW225211   6.301   3.183  12.229  0.2314  0.6704  0.3025
 7924SOL     OW25212   4.592   7.506   6.805 -0.2358 -0.2824  0.2390
 7924SOL    HW125213   4.591   7.557   6.886  2.0012  0.8224 -0.3623
 7924SOL    HW225214   4.664   7.444   6.817  0.4194  0.2085 -1.0840
 7925SOL     OW25215   4.483   2.574   1.762 -0.4112 -0.1458  0.0764
 7925SOL    HW125216   4.518   2.632   1.694 -1.5340  0.5194  0.0482
 7925SOL    HW225217   4.556   2.515   1.783 -0.1214 -0.5397 -1.8804
 7926SOL     OW25218   0.739   6.124   9.216 -0.0027  0.3676 -0.0795
 7926SOL    HW125219   0.812   6.119   9.278  0.4883 -1.6973 -0.7256
 7926SOL    HW225220   0.706   6.034   9.212 -2.4342  1.1917 -0.0201
 7927SOL     OW25221   7.749   5.078   9.923  0.0720 -0.5992 -0.4496
 7927SOL    HW125222   7.722   5.034  10.003  0.5539 -0.4221 -0.1884
 7927SOL    HW225223   7.758   5.170   9.947  0.2978 -0.5574 -0.6810
 7928SOL     OW25224   0.286   0.237   2.267 -0.0126 -0.0254 -0.0832
 7928SOL    HW125225   0.260   0.294   2.339  1.0090 -0.1585  0.4123
 7928SOL    HW225226   0.298   0.151   2.308  0.9704 -0.0145 -0.3093
 7929SOL     OW25227   6.451   7.054  11.402  0.6579  0.0050  0.0780
 7929SOL    HW125228   6.518   7.013  11.455  0.9151  1.1590  0.6822
 7929SOL    HW225229   6.386   7.085  11.465 -1.0960 -2.1322 -0.5552
 7930SOL     OW25230   2.930   7.878   5.296 -0.0797  0.2870  0.2921
 7930SOL    HW125231   2.923   7.831   5.379 -0.1814  0.0149  0.1302
 7930SOL    HW225232   2.903   7.968   5.317  1.8989  0.7773  1.0371
 7931SOL     OW25233   0.565   1.252   5.698 -0.0173  0.2540  0.6170
 7931SOL    HW125234   0.528   1.218   5.616  1.9017 -2.4452  0.7365
 7931SOL    HW225235   0.553   1.181   5.761  0.5704  1.4026  2.0865
 7932SOL     OW25236   6.474   0.639   5.655  0.3031  0.2616  0.1544
 7932SOL    HW125237   6.456   0.704   5.723  0.7813  0.4646  0.0882
 7932SOL    HW225238   6.430   0.673   5.577 -0.2541  0.0236  0.3614
 7933SOL     OW25239   2.701   6.833   1.439  0.0648 -0.6206 -0.1190
 7933SOL    HW125240   2.668   6.823   1.528  0.9714 -0.7457  0.2076
 7933SOL    HW225241   2.659   6.913   1.407  0.6497  0.0926  0.8392
 7934SOL     OW25242   2.742   6.748   5.595 -0.0888  0.3900  0.1285
 7934SOL    HW125243   2.710   6.833   5.565  1.2096  0.1658 -2.0971
 7934SOL    HW225244   2.668   6.688   5.581  0.0945  0.5236 -1.6939
 7935SOL     OW25245   1.258   5.044   7.118  0.4405  0.0745  0.1479
 7935SOL    HW125246   1.258   5.135   7.090  0.1309  0.2385  0.6654
 7935SOL    HW225247   1.320   5.040   7.190 -0.6135  0.1918  1.0836
 7936SOL     OW25248   3.680   4.294  10.457 -0.4937  0.0806 -0.5314
 7936SOL    HW125249   3.664   4.269  10.366 -3.4056  1.7521 -0.5814
 7936SOL    HW225250   3.634   4.227  10.509 -0.8539  0.4457 -0.3766
 7937SOL     OW25251   6.735   5.216  10.301  0.4562  0.5007 -0.3606
 7937SOL    HW125252   6.649   5.240  10.268 -0.1799  0.9471  1.5074
 7937SOL    HW225253   6.757   5.135  10.254 -0.8728  0.4829 -0.9984
 7938SOL     OW25254   6.720   7.874   5.011  0.4603  0.2420 -0.1959
 7938SOL    HW125255   6.745   7.932   4.939  0.9241 -2.3424 -2.2730
 7938SOL    HW225256   6.804   7.845   5.048  0.3687 -1.2885 -1.1061
 7939SOL     OW25257   2.012   5.247  10.489 -0.2465 -0.0663  0.3952
 7939SOL    HW125258   1.935   5.220  10.440  1.0687 -1.6202 -0.9186
 7939SOL    HW225259   1.977   5.289  10.568 -2.4250 -1.4638  0.2386
 7940SOL     OW25260   7.552   5.370   4.702  0.1525 -1.1887 -0.4525
 7940SOL    HW125261   7.499   5.294   4.680 -1.7660  0.5179 -2.1905
 7940SOL    HW225262   7.626   5.365   4.642 -1.2403 -0.4884 -2.3499
 7941SOL     OW25263   7.193   6.526   9.287  0.3160  0.3130  0.2361
 7941SOL    HW125264   7.247   6.498   9.361  1.6939 -0.1560 -0.8863
 7941SOL    HW225265   7.139   6.450   9.266 -0.8660  0.8034  1.4028
 7942SOL     OW25266   2.996   2.081   6.582  0.6276  0.0172 -0.4541
 7942SOL    HW125267   3.004   2.088   6.677 -1.0225 -0.6655 -0.2334
 7942SOL    HW225268   2.995   2.171   6.551 -1.6734  0.3778  0.4800
 7943SOL     OW25269   5.673   5.301   9.321 -0.0345  0.4886 -0.4676
 7943SOL    HW125270   5.617   5.264   9.253  0.2621  0.8261 -0.8979
 7943SOL    HW225271   5.706   5.383   9.284  1.3720 -0.0823 -0.5529
 7944SOL     OW25272   5.552   6.700   6.112 -0.1268 -0.0496  0.2413
 7944SOL    HW125273   5.491   6.738   6.175  0.4731 -0.6093  1.1851
 7944SOL    HW225274   5.505   6.702   6.029 -1.4394 -0.4620  0.9412
 7945SOL     OW25275   7.514   5.824   4.562 -0.3470 -0.1286 -0.4541
 7945SOL    HW125276   7.536   5.755   4.499  0.5847 -0.6441  0.4115
 7945SOL    HW225277   7.570   5.898   4.537  0.0737 -0.3564 -0.1918
 7946SOL     OW25278   7.866   0.927   5.013 -0.0515 -0.0666 -0.1913
 7946SOL    HW125279   7.899   0.916   4.924  0.9758 -0.2447  0.2082
 7946SOL    HW225280   7.771   0.914   5.005 -0.2806  2.0125 -1.6184
 7947SOL     OW25281   1.106   0.048   6.526 -0.3803 -0.4037  0.1721
 7947SOL    HW125282   1.134  -0.014   6.592  0.8966  0.3822  0.4071
 7947SOL    HW225283   1.120   0.134   6.566 -1.9660  0.0508 -0.1990
 7948SOL     OW25284   6.089   7.755  11.711  0.2200  0.2039 -0.1670
 7948SOL    HW125285   6.065   7.840  11.746 -1.5632 -0.3325  0.0194
 7948SOL    HW225286   6.044   7.692  11.767 -0.8654 -0.7510 -2.0245
 7949SOL     OW25287   7.257   6.246   9.051  0.5587  0.5342  0.2162
 7949SOL    HW125288   7.166   6.223   9.035  1.3138 -0.2197 -3.9269
 7949SOL    HW225289   7.267   6.335   9.017  1.7903 -0.2400 -1.6169
 7950SOL     OW25290   6.717   7.180  10.468 -0.0492 -0.5516 -0.0950
 7950SOL    HW125291   6.785   7.129  10.423 -0.0787  0.8236 -1.8047
 7950SOL    HW225292   6.654   7.203  10.399 -0.5194  0.9703  0.7825
 7951SOL     OW25293   1.210   0.185   2.386  0.6274 -0.1849 -0.3023
 7951SOL    HW125294   1.193   0.240   2.309  1.0325  0.6596  0.1921
 7951SOL    HW225295   1.219   0.097   2.351  2.5348  0.4079 -1.4881
 7952SOL     OW25296   3.202   1.846  11.055  0.4730 -0.1418  0.3382
 7952SOL    HW125297   3.155   1.819  10.976 -1.9141  0.0539  1.6059
 7952SOL    HW225298   3.159   1.800  11.126  1.0380  1.4314  1.7834
 7953SOL     OW25299   6.553   5.368   2.770  0.0152 -0.5213 -0.2385
 7953SOL    HW125300   6.512   5.455   2.761  0.6631 -0.0983  0.7050
 7953SOL    HW225301   6.627   5.370   2.710  0.7292  0.0355  0.6331
 7954SOL     OW25302   5.954   0.722  10.343 -0.0707  0.0383 -0.4502
 7954SOL    HW125303   6.012   0.791  10.310  0.1754 -0.7426 -1.7012
 7954SOL    HW225304   5.987   0.703  10.431  0.9087  0.3341 -0.7460
 7955SOL     OW25305   0.707   4.373   3.942 -0.4229  0.1910 -0.3622
 7955SOL    HW125306   0.747   4.364   3.855 -1.5220 -1.2270 -0.7438
 7955SOL    HW225307   0.644   4.445   3.932  0.6048  1.1404 -0.2651
 7956SOL     OW25308   5.206   3.548   1.878 -0.2663  0.1916  0.2632
 7956SOL    HW125309   5.280   3.588   1.833 -0.0288  0.2942  0.7420
 7956SOL    HW225310   5.245   3.476   1.928 -0.3594  0.7978  1.2209
 7957SOL     OW25311   3.111   0.929   8.525  0.7970  0.5271 -0.3124
 7957SOL    HW125312   3.206   0.917   8.526  0.7907  0.2107 -1.6286
 7957SOL    HW225313   3.076   0.842   8.506  0.1262  0.2521  1.8879
 7958SOL     OW25314   6.804   7.772   5.388 -0.1957  0.3495 -0.0342
 7958SOL    HW125315   6.783   7.760   5.480  0.4050 -0.4032  0.0111
 7958SOL    HW225316   6.721   7.797   5.347 -0.9850 -1.5450  0.3129
 7959SOL     OW25317   1.924   7.143   8.455 -0.2818  0.2244  0.3517
 7959SOL    HW125318   1.900   7.156   8.547 -1.1850 -2.0334  0.4999
 7959SOL    HW225319   1.924   7.048   8.443  0.6746  0.4237 -1.7818
 7960SOL     OW25320   2.399   3.839  10.860 -0.0180 -0.4361  0.1587
 7960SOL    HW125321   2.482   3.806  10.896  1.0013  0.9917 -0.7826
 7960SOL    HW225322   2.426   3.905  10.796 -1.9208  0.7175  0.4956
 7961SOL     OW25323   4.670   5.232   7.840  0.3999  0.0998  0.1178
 7961SOL    HW125324   4.657   5.184   7.922  1.4104  1.2783  1.0035
 7961SOL    HW225325   4.719   5.310   7.865 -0.3385  1.1113 -1.4372
 7962SOL     OW25326   1.549   2.217   9.876 -0.3342 -0.3866  0.1761
 7962SOL    HW125327   1.559   2.159   9.951  0.4001 -0.2876  0.1551
 7962SOL    HW225328   1.473   2.182   9.829 -0.8399 -0.4139  0.9870
 7963SOL     OW25329   3.151   0.833   0.052 -0.0980  0.0202 -0.2686
 7963SOL    HW125330   3.110   0.747   0.064  1.4741 -0.7540 -0.2687
 7963SOL    HW225331   3.172   0.862   0.141 -0.3774  0.2934 -0.2890
 7964SOL     OW25332   6.240   5.428  10.157  0.6244  0.2115  0.1301
 7964SOL    HW125333   6.203   5.513  10.131  0.9433  0.9683  2.0059
 7964SOL    HW225334   6.254   5.436  10.251 -1.4336 -2.7349  0.8210
 7965SOL     OW25335   0.013   5.728   6.624  0.4499  0.1343 -0.2603
 7965SOL    HW125336   0.004   5.776   6.706  0.4614  1.5765 -1.0569
 7965SOL    HW225337  -0.037   5.648   6.636 -0.9600  1.1030  0.5689
 7966SOL     OW25338   2.524   4.863  10.316 -0.0365  0.0805  0.0063
 7966SOL    HW125339   2.447   4.822  10.353 -0.2282  2.2368  2.2571
 7966SOL    HW225340   2.589   4.860  10.386  0.4579  2.0868 -0.3034
 7967SOL     OW25341   6.962   3.362  11.817 -0.7155 -0.0748  0.4358
 7967SOL    HW125342   6.882   3.367  11.868 -1.6228  0.2407 -0.9562
 7967SOL    HW225343   7.018   3.431  11.853 -1.1335 -0.1677  1.2939
 7968SOL     OW25344   7.142   4.826   2.450 -0.2068 -0.0902 -0.3522
 7968SOL    HW125345   7.148   4.755   2.386  1.2202 -2.1980  1.9427
 7968SOL    HW225346   7.073   4.798   2.510 -0.4276  1.0839 -0.0279
 7969SOL     OW25347   0.213   0.248  11.538 -0.7586  0.1456 -0.4291
 7969SOL    HW125348   0.285   0.294  11.496  0.1268 -0.2042  0.6383
 7969SOL    HW225349   0.148   0.237  11.469 -0.0231  0.9476 -1.2853
 7970SOL     OW25350   1.786   1.500   7.915  0.1351 -0.4130  0.1596
 7970SOL    HW125351   1.814   1.424   7.966  0.9270  1.3207  2.4437
 7970SOL    HW225352   1.821   1.576   7.962 -3.3225  1.6095 -0.2005
 7971SOL     OW25353   4.820   6.680   2.032  0.3482 -0.3667 -0.0401
 7971SOL    HW125354   4.806   6.647   1.943 -0.3486 -2.0972  0.6658
 7971SOL    HW225355   4.915   6.693   2.038  0.3719  0.0782 -1.1113
 7972SOL     OW25356   2.933   0.844  12.168 -0.0821  0.3177  0.0654
 7972SOL    HW125357   2.845   0.877  12.146 -0.1953  0.4086  0.6340
 7972SOL    HW225358   2.918   0.753  12.194  0.0619  0.1866 -0.3028
 7973SOL     OW25359   5.273   4.101   0.938 -0.2905 -0.0144 -0.3971
 7973SOL    HW125360   5.325   4.037   0.889 -0.7717  0.7756 -2.0159
 7973SOL    HW225361   5.316   4.184   0.921  0.7739  0.0946  2.2899
 7974SOL     OW25362   6.926   7.714   3.161  0.3516  0.8985  0.5697
 7974SOL    HW125363   6.838   7.753   3.165  0.3139  1.1854 -1.7023
 7974SOL    HW225364   6.962   7.745   3.079  1.7277 -1.0167  0.3887
 7975SOL     OW25365   2.552   2.043  10.560  0.0578 -0.4117  0.1258
 7975SOL    HW125366   2.575   1.951  10.574  0.2545 -0.6386 -1.5658
 7975SOL    HW225367   2.461   2.041  10.529  0.2542 -0.0811 -0.4803
 7976SOL     OW25368   2.877   2.075   3.633  0.1964  1.0944 -0.5987
 7976SOL    HW125369   2.881   2.094   3.540  1.9285  0.1405 -0.7688
 7976SOL    HW225370   2.931   1.997   3.644 -2.0690 -0.3987  0.8430
 7977SOL     OW25371   1.954   6.881   2.393 -0.0204  0.4131  0.6900
 7977SOL    HW125372   1.985   6.951   2.336 -0.9923 -0.6009 -1.2137
 7977SOL    HW225373   2.018   6.811   2.382 -0.4217  0.0669  0.5005
 7978SOL     OW25374   6.101   4.484  11.137  0.1091 -0.2547 -0.0798
 7978SOL    HW125375   6.142   4.400  11.154  0.7551 -0.1657 -1.0979
 7978SOL    HW225376   6.039   4.466  11.066 -0.0190  0.0563 -0.0492
 7979SOL     OW25377   7.239   4.833   6.545 -0.4130 -0.5397 -0.0844
 7979SOL    HW125378   7.153   4.857   6.512 -0.4006  0.2707  0.4305
 7979SOL    HW225379   7.300   4.863   6.477 -0.3679  1.3696  0.7247
 7980SOL     OW25380   7.278   5.013  10.433  0.5871 -0.4415  0.5274
 7980SOL    HW125381   7.220   4.967  10.372  1.4294 -2.8076  1.4356
 7980SOL    HW225382   7.326   5.076  10.378 -2.4375  1.3449 -0.3250
 7981SOL     OW25383   5.767   0.803   7.287  0.4680 -0.4775  0.5218
 7981SOL    HW125384   5.678   0.836   7.295  0.5214 -0.2046  0.0410
 7981SOL    HW225385   5.762   0.711   7.309 -0.4526 -1.1829 -2.2532
 7982SOL     OW25386   3.787   2.242   5.984 -0.3749  0.2170 -0.0840
 7982SOL    HW125387   3.852   2.310   6.005 -1.1245  1.3771 -1.3393
 7982SOL    HW225388   3.752   2.215   6.069  0.4135  0.9365  0.4874
 7983SOL     OW25389   5.090   6.256  11.893  0.6386  0.3608  0.4044
 7983SOL    HW125390   5.104   6.333  11.838 -0.9035  0.8532  0.6660
 7983SOL    HW225391   5.080   6.184  11.830  0.1402  0.7058  0.0883
 7984SOL     OW25392   2.519   6.432   9.066  0.1013 -0.2966  0.3934
 7984SOL    HW125393   2.593   6.471   9.113 -0.3938  0.8431  0.2622
 7984SOL    HW225394   2.453   6.501   9.064 -0.2789 -0.6727 -1.0586
 7985SOL     OW25395   4.870   7.436   5.315  0.1054 -0.0732  0.6556
 7985SOL    HW125396   4.860   7.461   5.407  0.7262 -2.1125  1.3258
 7985SOL    HW225397   4.810   7.363   5.302  0.8921 -0.5984 -0.2128
 7986SOL     OW25398   0.209   4.299   5.542  0.6829 -0.2547 -0.0122
 7986SOL    HW125399   0.256   4.322   5.622  0.2294 -1.6811  0.7067
 7986SOL    HW225400   0.147   4.371   5.529  0.2458 -0.3514  1.3526
 7987SOL     OW25401   3.969   1.512   1.077 -0.4952 -0.2023 -0.0019
 7987SOL    HW125402   4.037   1.575   1.053 -0.7727  0.3402  0.6233
 7987SOL    HW225403   3.900   1.525   1.012 -0.8643  0.6470  0.5571
 7988SOL     OW25404   7.184   7.310   3.837  0.2613 -0.0221 -0.2997
 7988SOL    HW125405   7.235   7.388   3.815 -1.0004  0.6799 -0.8435
 7988SOL    HW225406   7.203   7.249   3.767 -1.2507  1.0361 -1.7290
 7989SOL     OW25407   7.009   6.252   5.930  0.1838 -0.4124  0.1728
 7989SOL    HW125408   7.085   6.194   5.926 -0.0154 -0.7136  0.6293
 7989SOL    HW225409   7.042   6.333   5.968  0.2088 -0.6588  0.6793
 7990SOL     OW25410   5.650   3.341   1.266  0.6501 -0.5089  0.0426
 7990SOL    HW125411   5.649   3.390   1.184  0.0778 -0.0599  0.3118
 7990SOL    HW225412   5.607   3.258   1.245 -3.1139  1.0724  0.7526
 7991SOL     OW25413   0.637   6.831   4.593 -0.7906  0.8160  0.0269
 7991SOL    HW125414   0.564   6.812   4.653 -1.5869  0.5987 -0.9744
 7991SOL    HW225415   0.601   6.812   4.506  0.5012  0.6172 -0.4822
 7992SOL     OW25416   3.266   5.090   9.525  0.1091 -0.3046 -0.2940
 7992SOL    HW125417   3.333   5.102   9.592 -1.1767 -0.1892  1.0302
 7992SOL    HW225418   3.254   4.995   9.520  0.7185 -0.3522 -0.8952
 7993SOL     OW25419   6.159   6.711   4.784  0.1518 -0.4068  0.2570
 7993SOL    HW125420   6.189   6.780   4.725  1.3088 -2.5896 -1.9281
 7993SOL    HW225421   6.066   6.731   4.799  0.1335  0.9485 -1.3006
 7994SOL     OW25422   0.867   3.696   7.510  0.2023 -0.1148  0.2219
 7994SOL    HW125423   0.881   3.789   7.490  0.3190  0.4603  2.6430
 7994SOL    HW225424   0.810   3.665   7.440  0.9086  1.5261 -1.1605
 7995SOL     OW25425   3.710   6.155   0.502 -0.6046  0.1819 -0.1250
 7995SOL    HW125426   3.711   6.250   0.493  0.9085  0.5269  2.6723
 7995SOL    HW225427   3.801   6.128   0.488 -0.8648 -0.7675 -0.0771
 7996SOL     OW25428   5.775   2.685   6.344  0.1817  0.2289  0.2499
 7996SOL    HW125429   5.822   2.602   6.338  0.4839  0.4840 -1.4114
 7996SOL    HW225430   5.809   2.726   6.424 -0.2883 -1.3999  1.3454
 7997SOL     OW25431   7.786   3.667  12.359  0.7452  0.4293 -0.4616
 7997SOL    HW125432   7.794   3.724  12.435  2.9990 -0.5652  0.1390
 7997SOL    HW225433   7.804   3.724  12.284  2.9174  0.6104  0.1249
 7998SOL     OW25434   1.559   3.433   1.783 -0.5035 -0.1418  0.2345
 7998SOL    HW125435   1.538   3.359   1.841  0.8942  0.2183  1.2554
 7998SOL    HW225436   1.655   3.438   1.785 -0.5231  0.9780 -0.7501
 7999SOL     OW25437   6.914   0.447   0.504  0.0829  0.6561 -0.5004
 7999SOL    HW125438   6.951   0.372   0.550 -1.4174 -0.4786 -1.0416
 7999SOL    HW225439   6.932   0.521   0.561  0.2132 -0.3644  0.8405
 8000SOL     OW25440   6.364   7.523   1.491 -0.5482 -0.4178  0.2087
 8000SOL    HW125441   6.400   7.442   1.527  1.3800  0.8048  1.2111
 8000SOL    HW225442   6.271   7.520   1.515 -0.0958 -1.3921  2.0282
 8001SOL     OW25443   4.724   6.598   7.654 -0.6995 -0.6641  0.7952
 8001SOL    HW125444   4.713   6.651   7.575 -0.8343  0.2140  1.3789
 8001SOL    HW225445   4.672   6.519   7.638  0.1702 -1.0007 -0.4236
 8002SOL     OW25446   2.617   2.142   1.592  0.0833 -0.3087 -0.5057
 8002SOL    HW125447   2.665   2.177   1.668 -0.1303  1.1673 -1.0218
 8002SOL    HW225448   2.528   2.177   1.602 -0.1619 -0.7866 -1.0068
 8003SOL     OW25449   5.577   6.549   1.669  0.3110  0.7184 -0.6497
 8003SOL    HW125450   5.538   6.474   1.714  0.5043  0.9999 -0.0090
 8003SOL    HW225451   5.516   6.569   1.598  0.7376 -0.6686 -1.4590
 8004SOL     OW25452   1.401   5.047  10.954 -0.0153 -0.1992  0.2187
 8004SOL    HW125453   1.446   5.096  11.023 -1.0453  1.6990 -0.3692
 8004SOL    HW225454   1.459   5.055  10.878 -0.0803 -0.0746  0.1820
 8005SOL     OW25455   1.822   7.128   9.784  0.5219  0.1126  0.4629
 8005SOL    HW125456   1.797   7.042   9.815 -1.2315  0.9762  1.5945
 8005SOL    HW225457   1.917   7.124   9.775  0.4103 -2.1619 -0.3379
 8006SOL     OW25458   4.747   7.509   6.120  0.4378 -0.1596 -0.1816
 8006SOL    HW125459   4.731   7.463   6.203  3.0201 -2.3327 -0.7175
 8006SOL    HW225460   4.694   7.588   6.126 -2.0554 -1.7903  2.1061
 8007SOL     OW25461   1.910   5.657   1.246 -0.2902 -0.0998 -0.3189
 8007SOL    HW125462   1.828   5.609   1.233 -0.0767 -0.8412  0.8417
 8007SOL    HW225463   1.917   5.714   1.170 -3.2123  1.9150  0.7531
 8008SOL     OW25464   0.198   3.164   2.289 -0.3488 -0.0109  0.0387
 8008SOL    HW125465   0.113   3.152   2.332 -0.8454 -3.4405 -1.5425
 8008SOL    HW225466   0.262   3.136   2.354 -0.2003  3.1345  1.4510
 8009SOL     OW25467   5.267   1.670   9.687  0.2721  0.0757 -0.2221
 8009SOL    HW125468   5.347   1.639   9.731  0.6480  1.6224  0.2788
 8009SOL    HW225469   5.297   1.697   9.600  0.3668  0.8602  0.0414
 8010SOL     OW25470   5.648   2.916   4.487  0.2555 -0.0544 -0.2170
 8010SOL    HW125471   5.709   2.955   4.424 -1.1878  2.3377 -0.2615
 8010SOL    HW225472   5.697   2.843   4.526  3.1694  1.7486 -0.2020
 8011SOL     OW25473   5.441   1.548   4.954  0.2725 -0.3056 -1.0342
 8011SOL    HW125474   5.517   1.596   4.986  0.2911 -0.8358 -0.2599
 8011SOL    HW225475   5.369   1.574   5.013  0.2821 -1.2047 -0.6075
 8012SOL     OW25476   7.768   6.179   7.800  0.3047  0.3768  0.6769
 8012SOL    HW125477   7.823   6.100   7.797  0.6930  0.6392  0.7306
 8012SOL    HW225478   7.831   6.251   7.807 -0.0885  0.6054  2.2016
 8013SOL     OW25479   4.383   7.480   9.333  0.6434 -0.1494 -0.5116
 8013SOL    HW125480   4.330   7.411   9.294  1.2704 -1.2821  0.5513
 8013SOL    HW225481   4.321   7.533   9.383  0.0721  0.4015 -1.7862
 8014SOL     OW25482   1.804   6.885   9.892 -0.6692  0.0732  0.0609
 8014SOL    HW125483   1.772   6.876   9.982 -1.8974  0.2417 -0.3465
 8014SOL    HW225484   1.841   6.799   9.872  0.0710  0.1813  0.8834
 8015SOL     OW25485   7.039   6.249   5.149  0.0341  0.6848 -0.1174
 8015SOL    HW125486   6.994   6.311   5.092 -1.0823 -0.0274 -0.0448
 8015SOL    HW225487   7.095   6.198   5.089 -0.0413  0.8834 -0.3590
 8016SOL     OW25488   2.769   3.758   5.458 -0.2726  0.2413  0.2544
 8016SOL    HW125489   2.795   3.666   5.456 -0.0922  0.2154  2.1992
 8016SOL    HW225490   2.824   3.800   5.392 -0.7144 -1.1025 -1.0191
 8017SOL     OW25491   6.808   4.085   0.166  0.0306  0.7671 -0.4964
 8017SOL    HW125492   6.870   4.072   0.238 -0.6410  2.1204  0.3773
 8017SOL    HW225493   6.853   4.052   0.089  0.4272 -1.5948  0.6625
 8018SOL     OW25494   5.244   5.309   3.674  0.0529 -0.1420  0.2108
 8018SOL    HW125495   5.211   5.243   3.735  1.4010 -0.9675  0.0773
 8018SOL    HW225496   5.314   5.353   3.722  0.7369 -0.4092 -0.5352
 8019SOL     OW25497   1.497   2.408   1.611 -0.1596 -0.3546 -0.1108
 8019SOL    HW125498   1.435   2.353   1.659 -0.2314 -0.9717 -0.8997
 8019SOL    HW225499   1.580   2.362   1.618 -0.4546 -1.2050 -1.7668
 8020SOL     OW25500   4.493   7.604   2.394 -0.1088  0.2369 -0.5546
 8020SOL    HW125501   4.554   7.662   2.441  1.4493 -2.7074  1.3665
 8020SOL    HW225502   4.549   7.537   2.356 -1.9129 -0.5903 -1.8852
 8021SOL     OW25503   4.281   0.953   8.670  0.1536 -0.0692  0.1549
 8021SOL    HW125504   4.351   0.991   8.723  0.3849  0.2871 -0.3956
 8021SOL    HW225505   4.287   0.998   8.586 -0.2580 -0.5719 -0.1533
 8022SOL     OW25506   0.455   3.602  10.648  0.1021  0.0529  0.0901
 8022SOL    HW125507   0.483   3.650  10.726  0.6204  0.2248 -0.1931
 8022SOL    HW225508   0.381   3.652  10.614 -0.7234 -0.5422  0.9895
 8023SOL     OW25509   5.353   6.621   8.042 -0.1026 -0.3265  0.0809
 8023SOL    HW125510   5.273   6.619   8.095 -0.4788  0.3469 -0.4420
 8023SOL    HW225511   5.414   6.676   8.092 -0.4329  0.2501 -0.1403
 8024SOL     OW25512   5.514   6.239   5.216 -0.5755 -0.4198 -0.1225
 8024SOL    HW125513   5.604   6.261   5.191 -0.9740  1.5372  0.0273
 8024SOL    HW225514   5.515   6.234   5.311 -0.8975  0.9986 -0.0322
 8025SOL     OW25515   2.079   4.232   6.085 -0.3630  0.7893 -0.6504
 8025SOL    HW125516   2.071   4.249   6.179 -0.2144 -0.1644 -0.4488
 8025SOL    HW225517   2.144   4.161   6.080  0.9784  2.0375 -1.5963
 8026SOL     OW25518   5.412   1.667   0.735  0.1040 -0.2767 -0.4776
 8026SOL    HW125519   5.359   1.652   0.813  0.4916 -1.3683 -0.4068
 8026SOL    HW225520   5.382   1.751   0.701 -1.3875 -0.6671 -0.2000
 8027SOL     OW25521   6.716   7.856   3.592 -0.2888  0.6824 -0.0858
 8027SOL    HW125522   6.644   7.857   3.656 -0.3274  1.6913 -0.1185
 8027SOL    HW225523   6.755   7.770   3.601 -0.2446  0.8265  1.3807
 8028SOL     OW25524   0.294   5.514   9.019 -0.2529  0.4809 -0.1185
 8028SOL    HW125525   0.220   5.575   9.018  0.4166  1.4057  1.9059
 8028SOL    HW225526   0.264   5.440   9.071 -0.1701  0.3010 -0.3263
 8029SOL     OW25527   0.366   0.652   5.436 -0.0773 -0.2684  0.0021
 8029SOL    HW125528   0.301   0.621   5.499 -0.8898 -0.7219 -1.0247
 8029SOL    HW225529   0.426   0.706   5.487 -2.2055  1.5661  0.7141
 8030SOL     OW25530   5.307   3.482   2.123  0.4794  0.2915 -0.1622
 8030SOL    HW125531   5.303   3.451   2.213 -3.1771  0.2919 -0.1938
 8030SOL    HW225532   5.260   3.565   2.124  2.2097  1.3582 -1.7467
 8031SOL     OW25533   1.738   2.593  10.283 -0.0940  0.8233  0.1448
 8031SOL    HW125534   1.814   2.540  10.310  0.6178  0.7854 -1.7603
 8031SOL    HW225535   1.704   2.547  10.206 -1.3440  1.5049  0.2696
 8032SOL     OW25536   7.117   1.905   4.509 -0.1391 -0.1092 -0.0522
 8032SOL    HW125537   7.162   1.827   4.478  1.2794 -0.0651  1.7315
 8032SOL    HW225538   7.039   1.872   4.554  0.5305 -0.5275  0.8177
 8033SOL     OW25539   1.837   6.094   7.015 -1.0476 -0.0349 -0.0308
 8033SOL    HW125540   1.864   6.153   6.944 -1.1406 -0.0612 -0.0876
 8033SOL    HW225541   1.768   6.142   7.061 -0.1897  0.4769  0.7532
 8034SOL     OW25542   4.390   5.786   2.454  0.0001 -0.8177  0.0387
 8034SOL    HW125543   4.481   5.809   2.475 -0.2777 -0.6176  1.0617
 8034SOL    HW225544   4.380   5.697   2.489 -0.4823 -0.4663  0.8064
 8035SOL     OW25545   6.617   4.661   8.490 -0.4334  0.0651  0.2021
 8035SOL    HW125546   6.605   4.600   8.563  0.3581 -1.7913 -1.1401
 8035SOL    HW225547   6.661   4.737   8.530 -3.1706  0.7024  2.2960
 8036SOL     OW25548   0.860   6.762   8.198  0.0614 -0.2195  0.3419
 8036SOL    HW125549   0.913   6.836   8.170  0.6696 -0.8899 -0.3015
 8036SOL    HW225550   0.769   6.792   8.189  0.3041  0.9370  1.4632
 8037SOL     OW25551   4.623   1.217  10.511  0.2997 -0.3044  0.0585
 8037SOL    HW125552   4.569   1.143  10.537  0.4501 -0.2194  0.6432
 8037SOL    HW225553   4.712   1.184  10.513  0.2263 -0.6702 -1.7051
 8038SOL     OW25554   7.503   4.872   3.449  0.0049 -0.0094  0.2266
 8038SOL    HW125555   7.475   4.786   3.480 -2.4907  0.2854 -0.9275
 8038SOL    HW225556   7.481   4.932   3.520 -1.4455  0.0722 -0.2566
 8039SOL     OW25557   2.699   2.024   6.556 -0.2680 -0.2058 -0.4264
 8039SOL    HW125558   2.790   2.001   6.539  0.3754  1.1254  0.9939
 8039SOL    HW225559   2.656   2.014   6.471  1.1351 -1.0712 -1.0768
 8040SOL     OW25560   1.923   0.449   2.683 -0.5794 -0.2969  0.3475
 8040SOL    HW125561   1.954   0.359   2.678 -1.2383 -0.5414  0.5461
 8040SOL    HW225562   1.878   0.464   2.600 -1.0576 -0.3793  0.5888
 8041SOL     OW25563   1.617   1.099   7.624  0.3324  0.0669  0.9230
 8041SOL    HW125564   1.684   1.138   7.567  1.4973 -1.3397  1.2483
 8041SOL    HW225565   1.649   1.116   7.712 -0.3707  0.4232  1.1078
 8042SOL     OW25566   5.265   0.320   4.685 -0.3783 -0.5451 -0.3501
 8042SOL    HW125567   5.314   0.395   4.650 -1.4446 -0.0923 -0.9422
 8042SOL    HW225568   5.293   0.246   4.630  0.0154 -0.4027 -0.3471
 8043SOL     OW25569   2.309   4.061   5.638 -0.4852 -0.3007 -0.2117
 8043SOL    HW125570   2.297   3.966   5.642 -1.0695 -0.2788 -1.2226
 8043SOL    HW225571   2.315   4.081   5.545  0.7981  0.5347  0.0269
 8044SOL     OW25572   7.515   5.385  10.019 -0.8684  0.3130  0.9459
 8044SOL    HW125573   7.537   5.460   9.964  1.3105 -0.3917  0.7690
 8044SOL    HW225574   7.425   5.363   9.994 -0.1090  0.2411 -2.1109
 8045SOL     OW25575   0.690   6.373   3.841 -0.2350  0.1592  0.1756
 8045SOL    HW125576   0.701   6.390   3.935 -0.2495  0.6508  0.0887
 8045SOL    HW225577   0.596   6.378   3.826 -0.0866  2.9502 -0.3828
 8046SOL     OW25578   5.932   6.243   9.658 -0.4041 -0.0589 -0.0625
 8046SOL    HW125579   5.942   6.333   9.688 -0.9695 -0.8782  2.9036
 8046SOL    HW225580   5.837   6.228   9.654 -0.3544 -0.1583 -1.9547
 8047SOL     OW25581   4.467   0.477  12.186  0.2118 -0.1944  0.0072
 8047SOL    HW125582   4.446   0.508  12.274  2.7063  1.0907  0.2569
 8047SOL    HW225583   4.387   0.489  12.136 -1.1590 -0.5970  1.9891
 8048SOL     OW25584   4.100   7.870   9.428  0.3371  0.4917 -0.0270
 8048SOL    HW125585   4.011   7.897   9.406  0.3492  0.5323 -0.0282
 8048SOL    HW225586   4.132   7.939   9.486  0.3640  0.4720 -0.0179
 8049SOL     OW25587   4.105   2.723   0.955 -0.2053  0.2366 -0.7814
 8049SOL    HW125588   4.072   2.634   0.970  0.2907  0.5012  2.7658
 8049SOL    HW225589   4.030   2.780   0.973 -0.1215  0.5767 -1.5013
 8050SOL     OW25590   7.781   2.439   8.830  0.2849 -0.6492 -0.4125
 8050SOL    HW125591   7.835   2.438   8.751  0.1710  2.1765 -0.6210
 8050SOL    HW225592   7.837   2.477   8.898 -0.4818 -0.4676  0.1317
 8051SOL     OW25593   1.427   7.180   9.358  0.0090  0.5654 -0.2077
 8051SOL    HW125594   1.405   7.261   9.404 -2.9315 -0.3512  0.2066
 8051SOL    HW225595   1.484   7.132   9.419 -1.8322  0.4447  1.5244
 8052SOL     OW25596   5.181   1.359   2.124  0.1597  0.0573  0.5033
 8052SOL    HW125597   5.138   1.293   2.068  0.5571 -0.5618  0.9135
 8052SOL    HW225598   5.272   1.329   2.130  0.0743  0.0025  1.6493
 8053SOL     OW25599   5.238   3.215   8.440  0.5236 -0.2883  0.3017
 8053SOL    HW125600   5.233   3.121   8.461 -0.4072 -0.3921 -0.3101
 8053SOL    HW225601   5.328   3.239   8.460  1.1619 -1.6306 -0.7691
 8054SOL     OW25602   6.704   3.493   6.443  0.1169  0.0721  0.3321
 8054SOL    HW125603   6.620   3.448   6.439  0.5776 -0.7897  0.0918
 8054SOL    HW225604   6.751   3.450   6.515  0.2321  0.7705  0.6814
 8055SOL     OW25605   4.102   4.015   8.965  0.0860 -0.6282 -0.5191
 8055SOL    HW125606   4.194   3.992   8.973  0.2150 -0.1862 -0.7487
 8055SOL    HW225607   4.061   3.936   8.929  0.8952  0.1772 -3.4557
 8056SOL     OW25608   0.662   2.774   9.801 -0.5950  0.1303  0.3228
 8056SOL    HW125609   0.671   2.783   9.896  1.8448 -0.0725  0.1728
 8056SOL    HW225610   0.634   2.861   9.772  1.6401  1.1366  0.9802
 8057SOL     OW25611   4.067   4.559   0.715  0.3161  0.2039 -0.4394
 8057SOL    HW125612   4.073   4.619   0.640 -0.3862  0.9033  0.0641
 8057SOL    HW225613   4.102   4.609   0.789  1.1665 -0.5443 -0.3088
 8058SOL     OW25614   1.989   1.031   8.621 -0.6157 -0.5429 -0.5881
 8058SOL    HW125615   1.926   1.086   8.667 -0.8161  0.6331 -2.1841
 8058SOL    HW225616   2.044   1.093   8.572  0.9221 -1.6154 -0.3020
 8059SOL     OW25617   5.819   4.783   7.255 -0.6623  0.3058 -0.0904
 8059SOL    HW125618   5.900   4.732   7.251 -0.6195  0.2733  0.8027
 8059SOL    HW225619   5.753   4.720   7.283 -0.7978  0.5327  0.1050
 8060SOL     OW25620   7.348   2.981   1.926 -0.1160  0.2072 -0.0015
 8060SOL    HW125621   7.325   3.074   1.928 -2.6321 -0.3266 -0.3829
 8060SOL    HW225622   7.291   2.944   1.858  0.5647 -1.6867  0.3986
 8061SOL     OW25623   2.652   3.092  12.301 -0.5897  0.6013 -0.0552
 8061SOL    HW125624   2.663   3.163  12.238  1.3520 -0.5041 -1.0703
 8061SOL    HW225625   2.605   3.024  12.252  0.4168 -0.0404 -0.1479
 8062SOL     OW25626   5.361   4.737   3.006 -0.2308  0.3662 -0.2089
 8062SOL    HW125627   5.333   4.676   3.075 -3.4883 -0.7936 -2.3426
 8062SOL    HW225628   5.456   4.731   3.007 -0.2804 -1.9624  2.1101
 8063SOL     OW25629   2.881   4.784  11.661 -0.3550 -0.0372  0.1619
 8063SOL    HW125630   2.864   4.774  11.754 -1.0256  0.8842  0.1523
 8063SOL    HW225631   2.920   4.701  11.634 -0.6113 -0.4859  1.1555
 8064SOL     OW25632   3.948   0.479   2.389 -0.2286 -0.1021  0.1158
 8064SOL    HW125633   3.986   0.418   2.452 -1.9982 -1.9481 -0.4770
 8064SOL    HW225634   4.021   0.506   2.333  0.8824 -0.4538  1.3581
 8065SOL     OW25635   5.268   6.905  12.065 -0.2757 -0.6039  0.4179
 8065SOL    HW125636   5.347   6.852  12.079  0.5645 -0.3997 -2.8297
 8065SOL    HW225637   5.290   6.990  12.104  0.4235 -1.0664  1.0550
 8066SOL     OW25638   3.856   6.902   0.131  0.0122 -0.1884  0.1059
 8066SOL    HW125639   3.818   6.863   0.210  0.5354  0.3096  0.6124
 8066SOL    HW225640   3.832   6.995   0.135  0.2617 -0.1078 -0.1911
 8067SOL     OW25641   7.354   0.428   6.268  0.1441  0.4399 -0.0843
 8067SOL    HW125642   7.366   0.521   6.282  0.4608  0.4555 -0.4728
 8067SOL    HW225643   7.378   0.413   6.177  0.2941 -0.0544  0.0314
 8068SOL     OW25644   0.206   3.804   9.185  0.5323 -0.4378 -0.3937
 8068SOL    HW125645   0.162   3.830   9.104  0.9543  0.3049 -0.3871
 8068SOL    HW225646   0.243   3.885   9.220 -2.6266  0.0155  2.4152
 8069SOL     OW25647   3.084   1.226   8.534 -0.4071 -0.4560  0.0100
 8069SOL    HW125648   2.991   1.229   8.512 -0.1464  0.7805 -1.0016
 8069SOL    HW225649   3.097   1.138   8.571 -1.7381 -1.0480 -0.8600
 8070SOL     OW25650   6.209   0.224   4.696  0.4393  0.4981 -0.9459
 8070SOL    HW125651   6.291   0.204   4.650  0.2433  1.0889 -1.5614
 8070SOL    HW225652   6.147   0.247   4.627  0.2183  1.6896 -0.3775
 8071SOL     OW25653   2.837   0.180   0.359  0.7541  0.5142  0.4211
 8071SOL    HW125654   2.769   0.245   0.344  1.5767  1.3457  0.1851
 8071SOL    HW225655   2.816   0.143   0.445 -0.0452  0.6713  0.3049
 8072SOL     OW25656   2.189   1.819   8.387  0.9246  0.2962  0.0301
 8072SOL    HW125657   2.147   1.892   8.432  0.4084 -0.1130  0.2252
 8072SOL    HW225658   2.231   1.768   8.457 -1.8083 -1.6263  0.4281
 8073SOL     OW25659   0.240   3.450  11.502 -0.2725  0.0950 -0.1387
 8073SOL    HW125660   0.301   3.524  11.498  1.6614 -1.1040  3.1742
 8073SOL    HW225661   0.285   3.379  11.457 -0.3048 -0.1573  0.2259
 8074SOL     OW25662   4.306   0.831   7.885  0.1753 -0.5708 -0.2578
 8074SOL    HW125663   4.399   0.810   7.898  0.6390  0.6338 -1.4173
 8074SOL    HW225664   4.266   0.747   7.863  1.6279 -0.6701 -2.9908
 8075SOL     OW25665   3.977   1.274   8.329  0.7994 -0.1844  0.3584
 8075SOL    HW125666   4.047   1.273   8.264  2.3919  2.4441  1.8639
 8075SOL    HW225667   4.006   1.212   8.396  0.2266 -1.2358 -0.3328
 8076SOL     OW25668   2.878   0.714   4.971  0.9786  0.1552  0.4007
 8076SOL    HW125669   2.932   0.647   4.929  0.6656 -0.1431  0.4704
 8076SOL    HW225670   2.921   0.732   5.054  2.3285  1.6663 -0.5485
 8077SOL     OW25671   0.817   3.218   8.729  0.1165  0.1814  0.5663
 8077SOL    HW125672   0.732   3.209   8.686 -0.0738  1.4686  0.6265
 8077SOL    HW225673   0.872   3.264   8.665  0.7401 -0.5319  0.5745
 8078SOL     OW25674   3.714   1.872   0.875  0.3761  0.2774  0.6007
 8078SOL    HW125675   3.721   1.952   0.822  1.4962 -0.2609 -0.1205
 8078SOL    HW225676   3.803   1.838   0.877  0.3681  0.2658  2.8787
 8079SOL     OW25677   2.131   2.482   5.732  0.5260  0.1682  0.1385
 8079SOL    HW125678   2.133   2.518   5.820  0.2679  0.8727 -0.1385
 8079SOL    HW225679   2.168   2.550   5.677  1.1840 -0.4755 -0.2310
 8080SOL     OW25680   3.334   1.796   2.465  0.3860  0.3340 -0.8689
 8080SOL    HW125681   3.405   1.751   2.419 -0.9770 -1.7377 -1.0702
 8080SOL    HW225682   3.337   1.761   2.554 -0.3615  0.2095 -0.8834
 8081SOL     OW25683   7.821   4.484   5.793 -0.0103 -0.4092 -0.0023
 8081SOL    HW125684   7.830   4.392   5.818 -0.6960 -1.0574 -1.9662
 8081SOL    HW225685   7.869   4.492   5.711  0.7059  1.2042  0.5217
 8082SOL     OW25686   5.858   3.584  12.316  0.4608 -0.2652  0.1238
 8082SOL    HW125687   5.912   3.525  12.368 -1.4032 -2.0484  0.1774
 8082SOL    HW225688   5.842   3.536  12.235 -1.3748 -0.0176  0.2963
 8083SOL     OW25689   3.284   1.700   7.762  0.7149 -0.0905 -0.1916
 8083SOL    HW125690   3.344   1.676   7.833  0.7905 -0.0603 -0.2451
 8083SOL    HW225691   3.212   1.637   7.770  0.2638  0.5014  0.4911
 8084SOL     OW25692   0.282   0.456   7.589 -0.0284 -0.6257  0.0684
 8084SOL    HW125693   0.300   0.513   7.664 -0.8844 -0.1527 -0.0722
 8084SOL    HW225694   0.369   0.434   7.555  0.3300  0.4420  0.2440
 8085SOL     OW25695   5.468   1.972   7.070  0.2233  1.3125  0.2132
 8085SOL    HW125696   5.383   1.945   7.105  0.5937  1.0657  0.9283
 8085SOL    HW225697   5.449   2.051   7.019 -0.7637  0.1744 -1.2915
 8086SOL     OW25698   7.026   0.072   8.505 -0.6409  0.3856  0.2372
 8086SOL    HW125699   7.113   0.053   8.540 -0.4609 -1.5744 -1.1219
 8086SOL    HW225700   7.006   0.160   8.538  0.3281 -0.4649  3.5108
 8087SOL     OW25701   2.861   3.396   0.465 -0.1577 -0.2538 -0.1252
 8087SOL    HW125702   2.768   3.417   0.462  0.0562  0.5588 -1.9711
 8087SOL    HW225703   2.893   3.440   0.544 -1.2612 -0.3816  0.4213
 8088SOL     OW25704   6.697   6.724  11.451 -0.1769  0.8909 -0.4330
 8088SOL    HW125705   6.664   6.813  11.463 -0.1450  0.7204  1.1367
 8088SOL    HW225706   6.788   6.728  11.480 -0.6891 -0.0238  1.4515
 8089SOL     OW25707   7.061   3.834   0.903 -0.1730  0.5603 -0.1655
 8089SOL    HW125708   7.020   3.862   0.986 -2.0176  2.0154 -1.4740
 8089SOL    HW225709   7.140   3.788   0.930 -0.5010  1.3225  2.4081
 8090SOL     OW25710   1.345   5.106   5.593  0.0537 -0.0315  0.1005
 8090SOL    HW125711   1.429   5.062   5.593 -0.4167 -1.1074 -2.1546
 8090SOL    HW225712   1.281   5.036   5.580 -0.9239  1.0326 -1.1141
 8091SOL     OW25713   2.127   7.319   9.891 -0.0294 -0.3490  0.1612
 8091SOL    HW125714   2.221   7.332   9.886  0.3115 -2.7507 -1.1666
 8091SOL    HW225715   2.102   7.355   9.976  2.1710 -0.1979  0.7947
 8092SOL     OW25716   6.389   7.843   4.092 -0.0533 -0.4050 -0.3812
 8092SOL    HW125717   6.404   7.768   4.035 -3.1165  0.0997 -2.0511
 8092SOL    HW225718   6.331   7.809   4.160  2.7111 -0.7238  2.0440
 8093SOL     OW25719   3.841   3.412   7.518 -0.0057  0.0867 -0.2977
 8093SOL    HW125720   3.922   3.416   7.569 -1.0956  0.8066  1.4472
 8093SOL    HW225721   3.795   3.493   7.539 -1.3541 -0.4742 -0.9795
 8094SOL     OW25722   1.375   3.901   8.032  0.5057  0.1334 -0.1721
 8094SOL    HW125723   1.323   3.950   8.097 -0.2694 -0.1133 -0.5971
 8094SOL    HW225724   1.400   3.967   7.968  0.0588  0.1114 -0.3731
 8095SOL     OW25725   7.104   3.739  11.359  0.0234 -0.0694 -0.1330
 8095SOL    HW125726   7.191   3.771  11.380 -0.1384  1.4253 -1.5926
 8095SOL    HW225727   7.045   3.798  11.406 -0.2370 -1.3777  1.2547
 8096SOL     OW25728   6.730   6.292   1.816 -0.4382  0.1085 -0.4080
 8096SOL    HW125729   6.705   6.201   1.832 -1.9293  0.3895 -0.9604
 8096SOL    HW225730   6.800   6.286   1.751  0.7146 -0.6933  0.8403
 8097SOL     OW25731   1.509   7.915   5.605  0.3259 -0.6931  0.0639
 8097SOL    HW125732   1.558   7.856   5.548 -0.4245 -0.9200 -0.3562
 8097SOL    HW225733   1.451   7.857   5.655 -0.6509 -0.3050 -0.5831
 8098SOL     OW25734   4.837   6.828   5.325  0.4405 -0.6179  0.1771
 8098SOL    HW125735   4.883   6.860   5.404 -0.3968 -0.6023  0.6707
 8098SOL    HW225736   4.888   6.863   5.252  1.8682 -1.5380  0.6954
 8099SOL     OW25737   7.194   0.284   1.790  0.1491  0.5010  0.1821
 8099SOL    HW125738   7.278   0.329   1.785  0.4096  0.2287  1.7629
 8099SOL    HW225739   7.208   0.202   1.743  0.8531  0.3526  0.6369
 8100SOL     OW25740   4.894   5.614   6.941  0.2389 -0.2790  0.0975
 8100SOL    HW125741   4.814   5.607   6.889 -0.1233  2.0175  0.2099
 8100SOL    HW225742   4.885   5.548   7.009 -2.0004  0.5038  0.6348
 8101SOL     OW25743   3.751   5.074   1.677 -0.4515  0.5170 -0.1257
 8101SOL    HW125744   3.803   5.018   1.735 -0.3062  0.5691 -0.2052
 8101SOL    HW225745   3.816   5.117   1.621 -0.6721 -0.6902 -1.3603
 8102SOL     OW25746   3.263   5.106  12.252 -0.0678 -0.2904  0.2560
 8102SOL    HW125747   3.225   5.118  12.165 -0.9603  1.1035  0.8075
 8102SOL    HW225748   3.347   5.065  12.235 -0.3877 -0.3984 -1.2440
 8103SOL     OW25749   3.895   6.215   8.145  0.5507 -0.3301 -0.1069
 8103SOL    HW125750   3.934   6.300   8.129 -0.1777 -0.1318 -0.8687
 8103SOL    HW225751   3.801   6.232   8.153  0.3238 -1.1415 -0.8879
 8104SOL     OW25752   2.873   0.415   0.994  0.3376 -0.5852 -0.3071
 8104SOL    HW125753   2.812   0.347   1.022 -0.2037 -0.4490 -1.1211
 8104SOL    HW225754   2.919   0.376   0.919  2.7421 -1.4675  1.4963
 8105SOL     OW25755   7.409   7.686   1.422  0.5397 -0.5923 -0.1303
 8105SOL    HW125756   7.435   7.740   1.497 -0.5220 -0.0405 -0.1417
 8105SOL    HW225757   7.314   7.676   1.431  0.7652 -3.1377  0.3059
 8106SOL     OW25758   7.399   5.243   2.979  0.3694  0.0647  0.7172
 8106SOL    HW125759   7.425   5.305   2.911 -0.0913  0.9019  1.2861
 8106SOL    HW225760   7.407   5.292   3.061 -1.7887  0.0040  1.0223
 8107SOL     OW25761   4.977   2.249   8.210  0.2073 -0.0440  0.5347
 8107SOL    HW125762   5.061   2.222   8.248 -1.3171 -0.9981  3.4378
 8107SOL    HW225763   4.943   2.170   8.169  0.6466  0.3433 -0.6398
 8108SOL     OW25764   5.984   0.381   9.008 -0.3685 -0.5619 -0.1375
 8108SOL    HW125765   5.921   0.370   8.936 -0.7729 -1.7591  0.3635
 8108SOL    HW225766   6.057   0.324   8.983 -0.0861 -0.2307 -0.0626
 8109SOL     OW25767   5.902   4.385   1.059  0.4369  0.2395 -0.5259
 8109SOL    HW125768   5.812   4.416   1.049  0.4616 -0.0156 -1.6790
 8109SOL    HW225769   5.935   4.379   0.969  1.4320 -0.1767 -0.1424
 8110SOL     OW25770   3.561   0.533   9.849  1.0063 -0.6171 -0.2063
 8110SOL    HW125771   3.486   0.588   9.830  1.1251  0.6657  2.6038
 8110SOL    HW225772   3.618   0.541   9.772 -0.5027  0.5011 -1.2428
 8111SOL     OW25773   0.737   7.362   8.116 -0.3795  0.2542 -0.4234
 8111SOL    HW125774   0.804   7.296   8.138  0.5607  0.9808 -1.0203
 8111SOL    HW225775   0.762   7.439   8.168  0.2481  1.0770 -1.8894
 8112SOL     OW25776   4.815   5.260  10.620 -0.0860 -0.0747  0.0731
 8112SOL    HW125777   4.849   5.170  10.627 -0.0471 -0.0098  0.8781
 8112SOL    HW225778   4.843   5.290  10.534  1.3176 -0.2748  0.4342
 8113SOL     OW25779   0.224   2.525   0.716 -0.2722  0.2041  0.0714
 8113SOL    HW125780   0.200   2.616   0.731 -0.0578  0.3596 -0.5093
 8113SOL    HW225781   0.153   2.489   0.664  0.2499  0.3930 -0.7920
 8114SOL     OW25782   0.788   2.631   7.948 -0.0661 -0.0312 -0.7038
 8114SOL    HW125783   0.858   2.681   7.907 -0.5058  1.7738  0.6117
 8114SOL    HW225784   0.709   2.684   7.934 -0.5548 -0.3313  0.7484
 8115SOL     OW25785   4.403   4.589   1.041 -0.0773  0.3879  0.4875
 8115SOL    HW125786   4.406   4.538   1.122  0.5767  0.4955  0.5407
 8115SOL    HW225787   4.487   4.636   1.040 -0.5939  1.3322  0.3572
 8116SOL     OW25788   6.528   5.097   4.792  0.5312  0.1923  0.3035
 8116SOL    HW125789   6.447   5.124   4.749  0.4243 -1.7815 -0.8658
 8116SOL    HW225790   6.597   5.133   4.737  0.4086  0.0767  0.0691
 8117SOL     OW25791   3.060   1.578   8.359  0.0405 -0.3580 -0.3927
 8117SOL    HW125792   3.090   1.654   8.409 -0.6010 -0.7450  0.5938
 8117SOL    HW225793   3.124   1.510   8.378 -0.2567 -0.5340 -0.0207
 8118SOL     OW25794   5.245   6.810   7.242 -0.2819  0.3080 -0.5924
 8118SOL    HW125795   5.178   6.866   7.203 -0.9299 -0.0076  0.0403
 8118SOL    HW225796   5.204   6.777   7.322  1.0976  1.1433  0.4872
 8119SOL     OW25797   5.747   1.898   2.109 -0.0367  0.1014 -0.1273
 8119SOL    HW125798   5.779   1.824   2.056  0.8007  0.1984  0.2331
 8119SOL    HW225799   5.779   1.975   2.063 -3.1103  0.4156 -1.9916
 8120SOL     OW25800   7.205   2.127  10.683  0.4382  0.4501 -0.1340
 8120SOL    HW125801   7.300   2.121  10.669  0.4460 -1.7695  0.4497
 8120SOL    HW225802   7.177   2.036  10.694 -2.1441  0.7982 -2.5944
 8121SOL     OW25803   4.579   3.014   1.988  0.1033 -0.7251 -0.3133
 8121SOL    HW125804   4.490   3.047   1.978  0.5611  0.1325 -1.8492
 8121SOL    HW225805   4.572   2.919   1.977 -0.5428 -0.5993 -0.9961
 8122SOL     OW25806   6.787   1.902   8.536 -0.1706  0.6189 -0.0747
 8122SOL    HW125807   6.782   1.807   8.529  1.2310  0.6140 -1.4286
 8122SOL    HW225808   6.744   1.922   8.619 -2.7621 -0.9400 -0.9468
 8123SOL     OW25809   3.583   5.603   9.921 -0.5003  0.3256 -0.2103
 8123SOL    HW125810   3.616   5.598  10.011  0.2543 -1.1317 -0.5394
 8123SOL    HW225811   3.605   5.518   9.883 -0.2942  1.1323 -1.9633
 8124SOL     OW25812   1.814   1.544   6.326  0.1397  0.1490  1.1801
 8124SOL    HW125813   1.831   1.506   6.240 -0.1372  0.4706  0.9786
 8124SOL    HW225814   1.773   1.473   6.376 -0.2348  0.1340  0.8569
 8125SOL     OW25815   0.528   1.105   4.272  0.0174  0.2346  0.2967
 8125SOL    HW125816   0.620   1.084   4.254  0.2719 -0.7495  2.4630
 8125SOL    HW225817   0.524   1.200   4.264  1.5665  0.4360  1.4872
 8126SOL     OW25818   7.156   1.968   2.543 -0.2591  0.4904 -0.3755
 8126SOL    HW125819   7.076   1.915   2.544 -1.5493  2.3343  0.3295
 8126SOL    HW225820   7.193   1.954   2.456 -1.1644 -0.6583 -0.6018
 8127SOL     OW25821   1.793   7.260   4.668  0.4766  0.3743 -0.5487
 8127SOL    HW125822   1.718   7.260   4.609 -1.6123 -0.9294  1.8716
 8127SOL    HW225823   1.825   7.170   4.668  0.9967  0.5513 -0.3174
 8128SOL     OW25824   0.633   4.043   1.147  0.2368  0.1877 -0.0868
 8128SOL    HW125825   0.593   4.027   1.062 -1.2364  1.0080  0.4045
 8128SOL    HW225826   0.727   4.041   1.131 -0.0101  1.5517 -1.9641
 8129SOL     OW25827   2.345   1.313  12.187 -0.0476  0.7730 -0.0417
 8129SOL    HW125828   2.409   1.284  12.251  0.7931  1.7850 -0.3859
 8129SOL    HW225829   2.271   1.253  12.198  2.0201 -2.3523 -1.6056
 8130SOL     OW25830   2.389   3.848   8.219  0.3499 -0.0061  0.1067
 8130SOL    HW125831   2.405   3.941   8.235  1.0893  0.0157 -0.7075
 8130SOL    HW225832   2.344   3.845   8.135  0.0205 -0.3692  0.2902
 8131SOL     OW25833   0.480   3.628  10.128  0.0891 -0.4376 -0.0501
 8131SOL    HW125834   0.534   3.621  10.207 -1.2230  0.5341  0.9736
 8131SOL    HW225835   0.432   3.710  10.139 -0.4825 -0.5247 -1.6470
 8132SOL     OW25836   2.407   4.215  11.356 -0.3318  0.3151  0.1040
 8132SOL    HW125837   2.451   4.202  11.440 -0.3420 -0.3832  0.0043
 8132SOL    HW225838   2.339   4.280  11.375  0.3398  0.9503  0.3929
 8133SOL     OW25839   3.645   4.816   1.574 -0.2789 -0.3642 -0.5573
 8133SOL    HW125840   3.665   4.907   1.597 -2.1879  0.3617 -1.4986
 8133SOL    HW225841   3.717   4.789   1.516  1.4115 -0.2139  1.3648
 8134SOL     OW25842   2.044   5.720   7.472 -0.1896 -0.0268  0.1348
 8134SOL    HW125843   2.022   5.651   7.409  1.7324 -2.2985  1.7773
 8134SOL    HW225844   2.062   5.673   7.553 -1.7401  2.7211  2.2256
 8135SOL     OW25845   3.008   4.250   1.768  0.0645 -0.2655  0.2042
 8135SOL    HW125846   2.965   4.168   1.742  1.0765 -0.5345 -0.7172
 8135SOL    HW225847   2.944   4.318   1.749 -0.3094 -0.7344 -0.2379
 8136SOL     OW25848   0.970   7.217   8.182 -0.3882 -0.2781  0.3476
 8136SOL    HW125849   0.972   7.252   8.271 -1.3986  1.7829 -0.3544
 8136SOL    HW225850   1.051   7.250   8.142 -2.1026  3.0602 -0.8227
 8137SOL     OW25851   7.426   2.323  10.221  0.2382  0.1760 -0.1214
 8137SOL    HW125852   7.430   2.277  10.137 -2.9312 -0.1222 -0.2412
 8137SOL    HW225853   7.381   2.261  10.279  0.1543  1.3416  1.0875
 8138SOL     OW25854   6.296   2.692   1.326  0.2165 -0.2838 -0.1171
 8138SOL    HW125855   6.310   2.598   1.319 -0.0383 -0.2915 -0.5480
 8138SOL    HW225856   6.291   2.709   1.420  0.4710 -0.6702 -0.0354
 8139SOL     OW25857   7.293   0.482   7.162 -0.7443 -0.4193 -0.2474
 8139SOL    HW125858   7.242   0.443   7.233 -0.8631  1.1971  0.5876
 8139SOL    HW225859   7.365   0.526   7.207 -0.9282  0.7881 -1.1108
 8140SOL     OW25860   1.366   3.910   2.055  0.1170 -0.5864 -0.0659
 8140SOL    HW125861   1.362   3.837   1.993  0.1546  0.7862 -1.7290
 8140SOL    HW225862   1.404   3.982   2.006 -1.7370  1.1679  0.9512
 8141SOL     OW25863   1.511   7.471   4.711  0.3442  0.1079 -0.7535
 8141SOL    HW125864   1.586   7.525   4.686 -1.0470  2.4017 -0.3011
 8141SOL    HW225865   1.486   7.426   4.630  0.6431  1.3581 -1.5777
 8142SOL     OW25866   7.630   7.352   5.913 -0.2045 -0.2750  0.0232
 8142SOL    HW125867   7.668   7.404   5.984 -1.6829  0.1426  0.5322
 8142SOL    HW225868   7.598   7.272   5.954  0.5351 -0.8521 -0.4856
 8143SOL     OW25869   4.200   1.235   1.033 -0.1589  0.2933  0.0908
 8143SOL    HW125870   4.109   1.221   1.059 -0.0663  1.7138  1.3057
 8143SOL    HW225871   4.195   1.290   0.955 -0.3430  1.0985  0.6609
 8144SOL     OW25872   6.755   6.481  12.362 -0.3572  0.3004  0.0138
 8144SOL    HW125873   6.825   6.545  12.351 -0.5799  0.2420 -2.0371
 8144SOL    HW225874   6.792   6.400  12.327 -1.2291  0.1069 -0.4541
 8145SOL     OW25875   4.802   6.794   5.950 -0.3046  0.0256 -0.0042
 8145SOL    HW125876   4.794   6.702   5.928 -2.0271  0.3682 -0.9951
 8145SOL    HW225877   4.801   6.840   5.866 -0.9628  1.0235  0.5250
 8146SOL     OW25878   2.696   2.904   1.843  0.1780 -1.0331  1.0046
 8146SOL    HW125879   2.713   2.984   1.793 -1.3785 -1.3491 -0.1042
 8146SOL    HW225880   2.666   2.841   1.778  1.3283 -2.5447  1.8709
 8147SOL     OW25881   1.986   3.506   1.404  0.1104 -0.4545  0.7355
 8147SOL    HW125882   1.909   3.508   1.347  1.7095  0.4129 -1.5436
 8147SOL    HW225883   2.042   3.438   1.368  1.0741 -0.0641  1.4318
 8148SOL     OW25884   3.161   0.573   3.680  0.0099  0.6960 -0.1727
 8148SOL    HW125885   3.178   0.664   3.707  2.0464  0.9216 -1.9106
 8148SOL    HW225886   3.177   0.573   3.585  2.2618 -1.9029  0.0832
 8149SOL     OW25887   7.636   7.221   5.361  0.1210  0.5179  0.0556
 8149SOL    HW125888   7.637   7.142   5.306 -0.1895  0.9033 -0.5108
 8149SOL    HW225889   7.546   7.228   5.391  0.7913 -1.2887  3.0036
 8150SOL     OW25890   4.374   1.227   5.504  0.1490  0.8935 -0.5170
 8150SOL    HW125891   4.440   1.236   5.572 -1.7397  1.3383  1.3573
 8150SOL    HW225892   4.423   1.230   5.422  2.5778 -0.2789  0.8001
 8151SOL     OW25893   2.803   3.495   5.405 -0.0774  0.0456 -0.6186
 8151SOL    HW125894   2.847   3.413   5.426  0.8144  1.1614  2.5075
 8151SOL    HW225895   2.733   3.470   5.345 -0.8374 -3.2927  1.3710
 8152SOL     OW25896   3.581   0.274   7.234  0.0475  0.3784  0.5153
 8152SOL    HW125897   3.604   0.261   7.326 -1.1510 -1.1008  0.6428
 8152SOL    HW225898   3.488   0.294   7.235 -0.2981 -1.0845 -0.4564
 8153SOL     OW25899   2.347   5.140   2.997 -0.1090 -0.6482  0.4300
 8153SOL    HW125900   2.331   5.148   2.903 -1.5087  1.4681  0.7775
 8153SOL    HW225901   2.411   5.209   3.016 -0.4987 -0.4829  1.1678
 8154SOL     OW25902   0.344   1.420   3.956  0.1984  0.7777  0.2371
 8154SOL    HW125903   0.380   1.378   3.878  0.9134  0.9435  0.4784
 8154SOL    HW225904   0.335   1.350   4.020  1.4162  0.9742  0.6488
 8155SOL     OW25905   0.116   7.328   0.000 -0.0147 -0.2859 -0.6422
 8155SOL    HW125906   0.169   7.363  -0.072  0.9228 -0.8435 -0.2504
 8155SOL    HW225907   0.030   7.366  -0.012  0.4016  0.4154 -1.4838
 8156SOL     OW25908   0.071   3.562  10.631  0.5539  0.2692 -0.4388
 8156SOL    HW125909   0.058   3.532  10.541  0.5350 -0.7478 -0.1066
 8156SOL    HW225910   0.149   3.618  10.627  0.4744  0.3424 -1.1037
 8157SOL     OW25911   5.257   5.647   2.437  0.1234  0.1297  0.3031
 8157SOL    HW125912   5.308   5.642   2.517 -0.5829 -2.0555  0.6889
 8157SOL    HW225913   5.303   5.590   2.375 -1.1476 -0.9447  0.2914
 8158SOL     OW25914   4.092   4.500   5.917 -0.0728  0.6648  0.2612
 8158SOL    HW125915   4.108   4.541   5.832  1.2251  0.0467  0.1905
 8158SOL    HW225916   4.177   4.465   5.944 -0.8182 -0.6049  1.0478
 8159SOL     OW25917   2.955   5.735   0.951 -0.0224  0.5931 -0.3836
 8159SOL    HW125918   3.010   5.775   0.884  0.4516 -1.5305 -1.3533
 8159SOL    HW225919   3.016   5.691   1.010 -0.5510  0.5995  0.1836
 8160SOL     OW25920   2.241   0.132   2.143  0.4023 -0.6142 -0.0879
 8160SOL    HW125921   2.228   0.060   2.204 -0.4045 -1.1400 -0.8485
 8160SOL    HW225922   2.152   0.162   2.122  0.7292  1.0425  0.7028
 8161SOL     OW25923   5.989   4.329   4.818  0.2436  0.5773  0.6927
 8161SOL    HW125924   5.933   4.389   4.868  0.3022  0.6849  0.6311
 8161SOL    HW225925   5.989   4.248   4.869  2.5834  1.5464  2.4384
 8162SOL     OW25926   4.611   5.939  10.065 -0.1978 -0.1632 -0.2970
 8162SOL    HW125927   4.609   5.872  10.134  0.5110 -1.4048 -1.4215
 8162SOL    HW225928   4.699   5.932  10.028 -0.9912 -0.5574 -2.2528
 8163SOL     OW25929   2.042   3.768   2.874  0.0050  0.3817  0.3172
 8163SOL    HW125930   2.121   3.816   2.900  1.2772 -1.4617  0.0846
 8163SOL    HW225931   2.011   3.728   2.955 -0.3444  0.5953  0.2915
 8164SOL     OW25932   4.597   2.872   4.752  0.1987 -0.1682  0.3658
 8164SOL    HW125933   4.567   2.783   4.737 -1.3865  0.3839  0.0115
 8164SOL    HW225934   4.659   2.866   4.824 -0.9349 -1.3723  1.2648
 8165SOL     OW25935   6.354   1.529   4.453 -0.0256  0.1193  0.2891
 8165SOL    HW125936   6.395   1.528   4.367  0.2698  0.2847  0.4293
 8165SOL    HW225937   6.309   1.444   4.459  1.1787 -0.5176  0.5591
 8166SOL     OW25938   4.368   1.281   8.391  0.1228 -0.4094 -0.8658
 8166SOL    HW125939   4.304   1.311   8.327 -0.4597  1.8784  0.6418
 8166SOL    HW225940   4.421   1.358   8.409  0.8083 -1.2085  0.7596
 8167SOL     OW25941   0.699   5.860   8.565  0.1805 -0.0569 -0.1192
 8167SOL    HW125942   0.788   5.861   8.600 -0.6789  0.1871  2.2479
 8167SOL    HW225943   0.707   5.903   8.479  2.4237 -0.7180 -0.3173
 8168SOL     OW25944   3.095   7.423   2.581 -0.1054  0.2232  0.3980
 8168SOL    HW125945   3.099   7.515   2.606 -1.1092  0.0119  1.4224
 8168SOL    HW225946   3.170   7.411   2.522  1.0305  1.3008  1.5479
 8169SOL     OW25947   7.471   7.494  10.834 -0.4232  0.4377  0.1041
 8169SOL    HW125948   7.550   7.442  10.824  0.2040  1.6827 -2.0546
 8169SOL    HW225949   7.500   7.575  10.877 -0.1233  1.5684 -2.0788
 8170SOL     OW25950   5.259   1.043   0.752 -0.9896 -0.1331  0.1875
 8170SOL    HW125951   5.255   1.139   0.754  0.3372 -0.0630  0.3979
 8170SOL    HW225952   5.351   1.023   0.736 -1.6320 -1.3635 -2.7643
 8171SOL     OW25953   5.676   2.581   1.619 -0.0266 -0.0601 -0.2638
 8171SOL    HW125954   5.613   2.513   1.594  0.5088 -0.0407 -1.7721
 8171SOL    HW225955   5.761   2.536   1.617 -0.0161 -0.4061  2.9127
 8172SOL     OW25956   1.114   1.527  11.293 -0.5485 -0.4093  0.0555
 8172SOL    HW125957   1.063   1.556  11.218 -2.3011 -0.8852  1.0056
 8172SOL    HW225958   1.127   1.606  11.345 -1.1709 -0.4565  0.2864
 8173SOL     OW25959   5.195   0.024   7.156  0.3172 -1.0497  0.0068
 8173SOL    HW125960   5.145  -0.039   7.105 -0.2590  0.7209 -1.7578
 8173SOL    HW225961   5.132   0.061   7.217 -0.8675  1.5561 -2.5633
 8174SOL     OW25962   4.439   1.872   0.671  0.5138 -0.4046  0.1925
 8174SOL    HW125963   4.439   1.780   0.645  1.5337 -0.1464 -0.8208
 8174SOL    HW225964   4.511   1.911   0.621 -1.2061  1.3916 -1.0367
 8175SOL     OW25965   2.816   2.588   9.587  0.2708 -0.1165 -0.1258
 8175SOL    HW125966   2.875   2.542   9.528  1.4818  1.2503 -0.0570
 8175SOL    HW225967   2.731   2.548   9.573  0.9677 -1.2977 -1.1730
 8176SOL     OW25968   7.201   6.632   5.157  0.0291  0.0880  0.4504
 8176SOL    HW125969   7.295   6.625   5.138 -0.1590 -0.1263 -0.4505
 8176SOL    HW225970   7.172   6.541   5.169 -0.2420  0.0776 -0.2233
 8177SOL     OW25971   0.063   4.140   3.667 -0.2123  0.1114 -0.7665
 8177SOL    HW125972   0.034   4.117   3.755  1.8817 -0.5474 -0.1740
 8177SOL    HW225973   0.011   4.217   3.643 -1.6016 -0.3673  0.5649
 8178SOL     OW25974   2.667   7.892   8.690  0.6015 -0.0732 -0.4874
 8178SOL    HW125975   2.752   7.920   8.723  0.1198  1.6101 -0.5686
 8178SOL    HW225976   2.673   7.904   8.595 -0.3112  1.9420 -0.3438
 8179SOL     OW25977   7.287   5.513   9.644 -0.3001  0.2786  0.6309
 8179SOL    HW125978   7.334   5.527   9.562  2.2971 -0.5540  1.8822
 8179SOL    HW225979   7.339   5.560   9.709 -1.4771 -0.3079  2.0323
 8180SOL     OW25980   2.885   3.315   1.318  0.3557  0.0462 -0.0201
 8180SOL    HW125981   2.906   3.334   1.227 -1.6127 -1.1644 -0.7973
 8180SOL    HW225982   2.811   3.254   1.313  1.5444 -1.7222  2.3616
 8181SOL     OW25983   7.431   2.864   5.550 -0.5256 -0.8292  0.3867
 8181SOL    HW125984   7.423   2.784   5.602  0.1750 -0.7420  0.6446
 8181SOL    HW225985   7.391   2.932   5.604  1.3550 -0.4845  1.4415
 8182SOL     OW25986   7.808   4.698   1.805 -0.2374 -0.4106 -0.2508
 8182SOL    HW125987   7.875   4.630   1.794 -0.7293 -0.9794  0.1829
 8182SOL    HW225988   7.842   4.753   1.875  0.1604 -0.2159 -0.5959
 8183SOL     OW25989   1.994   2.838   4.990 -0.5518 -0.2313  0.0936
 8183SOL    HW125990   1.999   2.907   4.924 -0.6925 -0.9899 -0.7174
 8183SOL    HW225991   2.081   2.838   5.031  0.2290 -1.1298 -1.4997
 8184SOL     OW25992   4.481   3.266   3.788  0.0445 -0.3476  0.3401
 8184SOL    HW125993   4.428   3.264   3.708 -0.2215 -1.1764  0.5233
 8184SOL    HW225994   4.423   3.306   3.854  0.9627  2.2584 -0.3332
 8185SOL     OW25995   2.039   0.182   2.675  0.0591  0.2199  0.2603
 8185SOL    HW125996   2.087   0.212   2.752 -2.1938  0.7189  1.5732
 8185SOL    HW225997   2.045   0.086   2.678  0.8889  0.2729  0.4184
 8186SOL     OW25998   0.415   1.922  12.353 -0.0067 -0.2407  0.1355
 8186SOL    HW125999   0.357   1.994  12.329 -2.2405 -1.9029  0.2522
 8186SOL    HW226000   0.420   1.926  12.449  0.1346 -0.0787  0.1227
 8187SOL     OW26001   1.143   5.678   0.516 -0.2015  0.3673 -0.6248
 8187SOL    HW126002   1.064   5.661   0.567 -0.4370  1.5812 -0.5575
 8187SOL    HW226003   1.206   5.614   0.548 -0.3336  1.1100  1.2591
 8188SOL     OW26004   3.351   3.157   2.512 -0.1850 -0.2553 -0.0516
 8188SOL    HW126005   3.395   3.120   2.436 -0.9103 -1.6892  0.1926
 8188SOL    HW226006   3.260   3.128   2.503 -0.7166  1.1919  0.3513
 8189SOL     OW26007   4.219   0.710   6.435 -0.0184  0.5422  0.1874
 8189SOL    HW126008   4.147   0.665   6.480 -1.3469  2.2538 -0.1320
 8189SOL    HW226009   4.292   0.704   6.496 -0.3062 -1.4785  0.4085
 8190SOL     OW26010   6.970   6.968   3.944 -0.1873 -0.0075  0.0942
 8190SOL    HW126011   6.984   6.947   3.851 -2.6246 -2.0928  0.0940
 8190SOL    HW226012   6.918   7.049   3.942  0.2976  0.3012 -0.3251
 8191SOL     OW26013   5.465   5.882   1.041 -0.2282  0.4088  0.2449
 8191SOL    HW126014   5.491   5.808   1.096  1.9423 -0.2554 -1.5506
 8191SOL    HW226015   5.511   5.957   1.078 -0.8335  0.4942  0.8507
 8192SOL     OW26016   6.678   6.180   8.907 -0.2269 -0.1834  0.7144
 8192SOL    HW126017   6.658   6.265   8.945 -0.5689  0.7008 -1.3278
 8192SOL    HW226018   6.598   6.129   8.920 -0.2047 -0.0289  1.4853
 8193SOL     OW26019   4.992   2.983  11.846 -0.5393 -0.5869 -0.3558
 8193SOL    HW126020   5.070   2.928  11.849 -0.1046  0.0676  0.4624
 8193SOL    HW226021   4.943   2.960  11.925 -0.0130  0.6848  0.3617
 8194SOL     OW26022   1.643   2.449   8.504  0.5242  0.1359  0.8760
 8194SOL    HW126023   1.735   2.462   8.527  1.2141  2.4346 -2.4175
 8194SOL    HW226024   1.608   2.538   8.496 -1.3264 -0.6387 -0.2840
 8195SOL     OW26025   1.680   1.391   6.801  0.0544  0.2693 -0.3658
 8195SOL    HW126026   1.633   1.455   6.746 -0.6715 -0.7082 -0.9145
 8195SOL    HW226027   1.612   1.333   6.833  0.4734  0.8035  1.6021
 8196SOL     OW26028   7.267   3.817   7.979 -0.0607  0.2167  0.3985
 8196SOL    HW126029   7.188   3.799   7.927 -0.3872  1.9083  0.2530
 8196SOL    HW226030   7.244   3.792   8.068 -0.4324 -0.1674  0.1975
 8197SOL     OW26031   4.834   2.234  10.922  0.0491  0.0611  0.1191
 8197SOL    HW126032   4.757   2.278  10.958  0.1304 -0.3573  0.8187
 8197SOL    HW226033   4.842   2.270  10.833  0.9146  2.4742  1.0965
 8198SOL     OW26034   3.215   5.323   2.401  0.0156 -0.4644  0.6084
 8198SOL    HW126035   3.294   5.359   2.443 -1.6745  3.0759  1.1516
 8198SOL    HW226036   3.165   5.285   2.473  0.8047 -1.9601  0.3932
 8199SOL     OW26037   3.839   5.004   2.032 -0.4083 -0.5670  0.5184
 8199SOL    HW126038   3.918   5.015   1.980  0.9633  1.3977  2.8023
 8199SOL    HW226039   3.778   5.068   1.998 -0.0927 -0.3572  0.3465
 8200SOL     OW26040   0.429   4.976   0.937  0.1915  0.0638 -0.0156
 8200SOL    HW126041   0.415   5.041   1.007  2.2657 -0.5831  1.0803
 8200SOL    HW226042   0.467   4.901   0.982  3.3414  0.2812 -2.0399
 8201SOL     OW26043   0.924   5.945   3.085  0.7125 -0.2037  0.5489
 8201SOL    HW126044   0.868   5.919   3.158  1.4715  0.7171  1.4696
 8201SOL    HW226045   0.988   5.874   3.078 -0.5219 -1.2805 -0.5292
 8202SOL     OW26046   5.263   5.445   5.659 -0.1999  0.2544  0.8684
 8202SOL    HW126047   5.354   5.471   5.669  0.6854 -2.3761  0.4862
 8202SOL    HW226048   5.255   5.422   5.566 -1.7279  1.9582  0.5350
 8203SOL     OW26049   4.621   6.170   9.022  0.6002  0.3232 -0.0296
 8203SOL    HW126050   4.645   6.122   8.943  0.3898  0.5180 -0.2145
 8203SOL    HW226051   4.615   6.104   9.090 -1.8230 -0.2731 -0.7219
 8204SOL     OW26052   6.370   3.423   9.555 -0.6455 -0.3813 -0.4485
 8204SOL    HW126053   6.329   3.375   9.483 -2.8962  0.6291  0.0719
 8204SOL    HW226054   6.338   3.513   9.546 -0.2615 -0.0347  1.2650
 8205SOL     OW26055   4.127   6.212  12.316 -0.2939  1.1046  0.2715
 8205SOL    HW126056   4.161   6.301  12.314  1.7653  0.3509 -0.3976
 8205SOL    HW226057   4.059   6.214  12.384  0.6486  2.8562  1.2291
 8206SOL     OW26058   4.993   7.882   2.954 -0.1316  0.1883 -0.0914
 8206SOL    HW126059   5.058   7.846   3.014 -1.6690 -1.5067  0.6753
 8206SOL    HW226060   4.992   7.820   2.881 -1.4856 -0.3323  0.3399
 8207SOL     OW26061   2.588   1.120  10.232  0.4432 -0.9921 -0.4002
 8207SOL    HW126062   2.579   1.187  10.300 -0.9383 -0.8611 -0.6822
 8207SOL    HW226063   2.679   1.127  10.203  0.6589 -0.0929  0.4515
 8208SOL     OW26064   1.373   7.046   7.867 -0.2962 -0.0591 -0.1999
 8208SOL    HW126065   1.314   7.040   7.942 -0.5024 -1.7158 -0.4680
 8208SOL    HW226066   1.453   7.085   7.902 -0.4422 -0.6827  0.8612
 8209SOL     OW26067   5.721   4.907   0.996 -0.3727  0.6984  0.1549
 8209SOL    HW126068   5.699   4.997   0.974 -3.2990  0.0142 -0.0690
 8209SOL    HW226069   5.733   4.864   0.911  3.8198  1.3334  0.2146
 8210SOL     OW26070   1.369   5.503   4.730  0.5566 -0.3256  0.0389
 8210SOL    HW126071   1.307   5.476   4.661  1.2332  0.5789 -0.9594
 8210SOL    HW226072   1.390   5.422   4.776 -2.2229 -0.5157  1.1703
 8211SOL     OW26073   6.062   2.552   8.304  0.7300  0.5634  0.2883
 8211SOL    HW126074   5.974   2.584   8.325  0.7928  0.0194  1.4385
 8211SOL    HW226075   6.120   2.621   8.336  0.7364  1.1381 -0.8802
 8212SOL     OW26076   3.322   4.130  12.358 -0.2321 -0.3359 -0.4564
 8212SOL    HW126077   3.368   4.049  12.379 -2.2200 -1.0029  1.8022
 8212SOL    HW226078   3.265   4.106  12.285 -0.5022 -0.8849 -0.0760
 8213SOL     OW26079   3.213   5.659   1.940  0.2998  0.3178 -0.0956
 8213SOL    HW126080   3.269   5.590   1.976 -0.8566 -0.7787 -0.3279
 8213SOL    HW226081   3.161   5.614   1.873  0.1858  1.6356 -0.9280
 8214SOL     OW26082   1.690   3.137  10.135  0.0057  0.3767 -0.3058
 8214SOL    HW126083   1.597   3.146  10.113 -0.1428  2.0798  0.8111
 8214SOL    HW226084   1.697   3.051  10.176 -0.6406 -0.6928 -2.3365
 8215SOL     OW26085   0.770   6.645   6.076  0.2941 -0.5421  0.0360
 8215SOL    HW126086   0.776   6.662   5.982 -0.2025  0.7616  0.2154
 8215SOL    HW226087   0.860   6.656   6.108  0.2465  0.2628 -0.0998
 8216SOL     OW26088   2.538   3.148  11.064  0.2964  0.6875  0.0650
 8216SOL    HW126089   2.454   3.178  11.098  0.4094  0.2449  0.7369
 8216SOL    HW226090   2.539   3.054  11.082 -0.2324  0.1203 -2.3706
 8217SOL     OW26091   4.699   0.255   1.360  0.1266  0.5379 -0.1192
 8217SOL    HW126092   4.645   0.180   1.334  0.7223  0.4874 -1.2560
 8217SOL    HW226093   4.683   0.264   1.454  0.3331 -1.2568  0.1330
 8218SOL     OW26094   3.155   4.139  10.774  1.0768 -0.6318 -0.1338
 8218SOL    HW126095   3.137   4.101  10.689 -0.4957  3.5941 -1.9621
 8218SOL    HW226096   3.250   4.152  10.775  0.9467  0.9903 -2.2005
 8219SOL     OW26097   5.518   0.912   6.147  0.0827  0.1111 -0.3420
 8219SOL    HW126098   5.586   0.871   6.093  0.1496  2.0174 -1.8129
 8219SOL    HW226099   5.438   0.901   6.096 -0.6720 -1.6215  1.1190
 8220SOL     OW26100   6.690   6.387   6.898  0.0299  0.5504 -0.2647
 8220SOL    HW126101   6.639   6.356   6.973  1.3223 -0.9575  0.0548
 8220SOL    HW226102   6.636   6.363   6.822  0.5671 -1.7966  0.0238
 8221SOL     OW26103   4.776   1.296   3.911  0.4239  0.5399  0.2284
 8221SOL    HW126104   4.757   1.377   3.959  0.4437  0.0951  0.9985
 8221SOL    HW226105   4.795   1.231   3.979  0.3733 -0.1248 -0.3782
 8222SOL     OW26106   1.946   6.444   7.919  0.4615 -0.0110 -0.4437
 8222SOL    HW126107   1.966   6.359   7.882 -0.7917 -0.7475  0.4974
 8222SOL    HW226108   2.001   6.451   7.996 -2.3352 -1.8749  1.9288
 8223SOL     OW26109   0.928   5.702   3.612  0.7303 -0.2036 -0.1167
 8223SOL    HW126110   0.930   5.644   3.536 -1.2779  0.3924 -0.6802
 8223SOL    HW226111   0.998   5.766   3.595  1.9705 -1.5154 -0.1950
 8224SOL     OW26112   1.305   5.521   8.645  0.1163  0.7884  0.6495
 8224SOL    HW126113   1.341   5.432   8.646 -0.1848  0.6234 -0.9481
 8224SOL    HW226114   1.211   5.508   8.632  0.1501  1.3386 -0.2071
 8225SOL     OW26115   1.644   4.688   6.895 -0.2352 -0.0035  0.1467
 8225SOL    HW126116   1.585   4.752   6.933  0.6296  0.0887  1.4020
 8225SOL    HW226117   1.731   4.715   6.925  1.0346  1.9356 -4.3525
 8226SOL     OW26118   7.430   4.242   4.922 -0.0113  0.5886 -0.1383
 8226SOL    HW126119   7.451   4.192   5.001 -1.9529 -0.6702 -0.3434
 8226SOL    HW226120   7.504   4.226   4.863  0.2113 -0.6892  0.4409
 8227SOL     OW26121   4.457   1.539   4.034  0.1310  0.6794  0.1180
 8227SOL    HW126122   4.390   1.474   4.011 -0.4537  1.4249 -0.3394
 8227SOL    HW226123   4.463   1.534   4.130 -2.9514  2.7723  0.6047
 8228SOL     OW26124   3.905   0.039  11.499  0.3940  0.4700  0.3600
 8228SOL    HW126125   3.887   0.059  11.407 -1.7154 -1.8821  0.1494
 8228SOL    HW226126   3.899   0.123  11.544  1.1059  1.6205 -1.5569
 8229SOL     OW26127   5.177   2.200   0.788 -0.1628  0.4352  0.1479
 8229SOL    HW126128   5.131   2.127   0.748 -0.5934  2.1238 -2.7090
 8229SOL    HW226129   5.108   2.253   0.829 -0.1686  0.4928  0.0642
 8230SOL     OW26130   5.884   6.027   3.776  0.3227  0.2849  0.1597
 8230SOL    HW126131   5.857   5.944   3.815 -1.6672  0.9395  0.2898
 8230SOL    HW226132   5.832   6.093   3.823 -0.3263  1.3229 -1.9066
 8231SOL     OW26133   5.918   3.825  10.101 -0.0149  0.1731  0.3805
 8231SOL    HW126134   5.849   3.786  10.155 -0.5674 -0.1911 -0.5826
 8231SOL    HW226135   5.886   3.913  10.082  0.9340  0.9176  2.0015
 8232SOL     OW26136   2.746   2.231   5.473 -0.2722 -0.5199  0.2584
 8232SOL    HW126137   2.676   2.191   5.421  0.5321 -1.5842 -0.0454
 8232SOL    HW226138   2.749   2.179   5.553  0.4113 -0.7254  0.1067
 8233SOL     OW26139   1.028   3.308   1.479 -0.4709 -0.2052  0.6865
 8233SOL    HW126140   1.072   3.375   1.530 -1.6096 -0.5814  2.2277
 8233SOL    HW226141   0.941   3.345   1.460 -0.3917 -0.4464 -0.2062
 8234SOL     OW26142   5.927   1.988   8.287  0.0161  0.6925  0.0082
 8234SOL    HW126143   5.987   2.054   8.321  0.2368 -0.0060  1.0170
 8234SOL    HW226144   5.898   1.939   8.364 -0.5200 -0.0745 -0.6585
 8235SOL     OW26145   2.294   7.622   2.445  0.0131  0.4450  0.1915
 8235SOL    HW126146   2.335   7.564   2.510 -0.3030 -0.6098 -0.5323
 8235SOL    HW226147   2.218   7.573   2.414  0.4347  0.7065 -1.3401
 8236SOL     OW26148   4.826   0.951   8.270  0.7716  0.6688 -0.1389
 8236SOL    HW126149   4.865   1.038   8.264  4.0427 -0.4323  2.3070
 8236SOL    HW226150   4.825   0.932   8.364 -2.3225 -0.9853 -0.3867
 8237SOL     OW26151   6.106   4.335   4.080  0.6561 -0.0259  0.4480
 8237SOL    HW126152   6.118   4.323   3.986 -0.0742  1.0024  0.2134
 8237SOL    HW226153   6.123   4.248   4.117  0.7448 -0.4955 -0.6517
 8238SOL     OW26154   5.931   1.020   1.593 -0.3042 -0.3427 -0.2091
 8238SOL    HW126155   6.005   1.080   1.591 -0.0255 -0.6750 -0.0512
 8238SOL    HW226156   5.891   1.028   1.507  0.7734 -1.2185 -0.8094
 8239SOL     OW26157   5.431   0.417   7.961  0.4521 -0.2951  0.6100
 8239SOL    HW126158   5.471   0.367   7.890  0.1699 -0.5504  0.6333
 8239SOL    HW226159   5.473   0.503   7.956  0.7894 -0.4678  0.4441
 8240SOL     OW26160   4.355   7.660   5.089  0.3491 -0.2326  0.5325
 8240SOL    HW126161   4.405   7.704   5.020  1.0641  0.3021  1.3668
 8240SOL    HW226162   4.264   7.679   5.070  0.6043  0.8594  0.3619
 8241SOL     OW26163   0.422   7.798   2.027 -0.1260  0.1026  0.3241
 8241SOL    HW126164   0.336   7.757   2.025 -0.0829 -0.0401  1.0894
 8241SOL    HW226165   0.480   7.731   2.064  0.6388 -0.3542 -1.5844
 8242SOL     OW26166   6.024   2.081   5.831 -0.6317  0.1468  0.2841
 8242SOL    HW126167   6.083   2.027   5.884 -0.4426 -0.1555 -0.2156
 8242SOL    HW226168   5.938   2.041   5.842 -0.4092 -0.6055 -0.4906
 8243SOL     OW26169   7.095   3.967   9.379 -0.1012 -0.3841  0.4393
 8243SOL    HW126170   7.031   3.917   9.329 -1.4038 -0.0025  1.6881
 8243SOL    HW226171   7.117   4.041   9.322  2.2662 -2.5016 -1.6806
 8244SOL     OW26172   4.822   2.193   2.130  0.5311  0.4265  0.1497
 8244SOL    HW126173   4.753   2.219   2.191  0.7320  0.4567  0.3615
 8244SOL    HW226174   4.854   2.276   2.094 -0.6578  0.3517 -1.1790
 8245SOL     OW26175   4.701   4.562   2.756 -0.3815  0.2842  0.1688
 8245SOL    HW126176   4.606   4.567   2.745 -0.4124  2.8281  0.8847
 8245SOL    HW226177   4.713   4.534   2.847 -0.3174 -3.2655 -0.7971
 8246SOL     OW26178   6.566   6.455   5.523  0.0077 -0.2466 -1.1941
 8246SOL    HW126179   6.577   6.372   5.569 -1.4570 -0.5403 -1.3347
 8246SOL    HW226180   6.655   6.480   5.498  0.6353 -1.0403  0.0952
 8247SOL     OW26181   3.888   5.505  11.572  0.2519  0.0560  0.2944
 8247SOL    HW126182   3.887   5.452  11.652 -1.1085 -0.7730 -0.2281
 8247SOL    HW226183   3.881   5.441  11.501 -3.0258  0.8830 -0.3034
 8248SOL     OW26184   1.163   0.454   9.138 -0.2569 -0.0611  0.3289
 8248SOL    HW126185   1.086   0.500   9.106  1.2108  1.7643 -0.7592
 8248SOL    HW226186   1.169   0.376   9.082  0.0476  1.0551 -1.2435
 8249SOL     OW26187   0.956   7.431   4.754  0.4471  0.3457  0.0605
 8249SOL    HW126188   0.995   7.400   4.672  0.1488  1.2297 -0.4198
 8249SOL    HW226189   1.020   7.405   4.821 -0.6245 -2.9813 -0.0410
 8250SOL     OW26190   6.217   3.572   0.140 -0.0103 -0.3845 -0.3769
 8250SOL    HW126191   6.220   3.513   0.216  0.4600  1.9605  1.5583
 8250SOL    HW226192   6.309   3.586   0.117 -0.0650  0.3944 -0.1371
 8251SOL     OW26193   1.222   3.969   5.978 -0.1007 -0.3143  0.0450
 8251SOL    HW126194   1.213   4.035   5.909 -2.3627 -0.5699  0.0118
 8251SOL    HW226195   1.244   3.889   5.930 -1.0078 -0.3479 -0.3410
 8252SOL     OW26196   6.220   1.130   4.238  0.4635  0.5080  0.3994
 8252SOL    HW126197   6.309   1.149   4.205  0.5891 -0.0021  0.4479
 8252SOL    HW226198   6.197   1.046   4.199  0.4104  0.1347  1.2178
 8253SOL     OW26199   5.773   3.434   0.913  0.1678 -0.0398 -0.0896
 8253SOL    HW126200   5.718   3.507   0.885  0.8209  0.9681  1.1603
 8253SOL    HW226201   5.835   3.422   0.841 -0.7436 -0.2269 -0.8630
 8254SOL     OW26202   2.183   5.128   9.130 -0.0219  0.0417 -0.0702
 8254SOL    HW126203   2.130   5.175   9.193  0.3334 -0.7998  0.8734
 8254SOL    HW226204   2.162   5.036   9.143 -0.7479 -0.0957 -1.9267
 8255SOL     OW26205   3.468   7.374   2.682 -0.5876  0.3585 -0.2769
 8255SOL    HW126206   3.537   7.310   2.705 -1.3946 -0.2722  0.4599
 8255SOL    HW226207   3.421   7.388   2.764 -1.0171  1.1922 -0.6598
 8256SOL     OW26208   7.570   1.264  10.783 -0.2693 -0.0966  0.3074
 8256SOL    HW126209   7.537   1.275  10.873  1.5229  3.4849  0.6907
 8256SOL    HW226210   7.617   1.181  10.785  0.6247  0.3803  3.0152
 8257SOL     OW26211   2.797   5.051  11.647 -0.2869 -0.1619  0.1180
 8257SOL    HW126212   2.708   5.015  11.652  0.4987 -2.1201  0.6795
 8257SOL    HW226213   2.851   4.979  11.616  0.9354  1.4049 -1.6153
 8258SOL     OW26214   6.741   7.044   2.237  0.3371 -0.0814  0.0119
 8258SOL    HW126215   6.736   7.122   2.183  0.6430 -0.7573 -1.0153
 8258SOL    HW226216   6.834   7.037   2.261  0.1813  0.2909  0.7534
 8259SOL     OW26217   2.617   1.836  12.138  0.4489  0.1184  0.7538
 8259SOL    HW126218   2.690   1.880  12.183 -1.3259  1.7983  2.1464
 8259SOL    HW226219   2.585   1.772  12.201  1.3847 -1.5100 -0.3163
 8260SOL     OW26220   6.971   0.356   1.957 -0.4380 -0.2929 -0.1991
 8260SOL    HW126221   7.045   0.349   1.896 -0.3776 -0.0062 -0.1562
 8260SOL    HW226222   6.918   0.278   1.938 -0.8150  0.1767 -1.1403
 8261SOL     OW26223   0.423   6.924   1.566 -0.2259  0.0632  0.3618
 8261SOL    HW126224   0.393   6.957   1.651 -0.4671 -0.1200  0.3477
 8261SOL    HW226225   0.470   6.844   1.587 -0.7793 -0.2907  0.2695
 8262SOL     OW26226   7.874   3.561   0.290  0.1687 -0.7541  0.5371
 8262SOL    HW126227   7.781   3.571   0.310 -0.3155 -2.0209 -0.9004
 8262SOL    HW226228   7.915   3.637   0.332 -1.8328  1.2227 -0.8210
 8263SOL     OW26229   6.383   7.510   5.937 -0.3082  0.0807  0.0819
 8263SOL    HW126230   6.423   7.486   6.021  1.7072 -0.0658 -0.8551
 8263SOL    HW226231   6.397   7.605   5.930  3.9586 -0.4454 -2.0722
 8264SOL     OW26232   1.868   2.922   1.389  0.2645 -0.4323 -0.4226
 8264SOL    HW126233   1.958   2.954   1.392 -0.0018  0.9003 -3.3901
 8264SOL    HW226234   1.820   2.982   1.447  0.5297  2.0721 -2.6052
 8265SOL     OW26235   6.172   4.060   3.942 -0.5155 -0.0033  0.5865
 8265SOL    HW126236   6.170   4.083   4.035 -0.7394  0.0117  0.5796
 8265SOL    HW226237   6.083   4.078   3.911 -1.1044 -2.2187  0.8998
 8266SOL     OW26238   0.113   5.506  10.806 -0.0418 -0.0208  0.1395
 8266SOL    HW126239   0.019   5.490  10.809  0.2388 -2.7166 -1.6601
 8266SOL    HW226240   0.147   5.440  10.746  2.6874  2.5392 -1.4219
 8267SOL     OW26241   7.924   3.644   8.561  0.4799  0.2386 -0.0852
 8267SOL    HW126242   7.918   3.738   8.542 -1.0145  0.7796  2.5696
 8267SOL    HW226243   7.920   3.602   8.475  1.3933  2.5767 -1.3775
 8268SOL     OW26244   4.261   3.989  10.751  0.1678 -0.0142 -0.1322
 8268SOL    HW126245   4.304   4.042  10.685  2.5016 -0.2094  1.1299
 8268SOL    HW226246   4.280   4.034  10.834  0.2910 -1.6113  0.7409
 8269SOL     OW26247   0.754   4.350   5.606 -0.1743 -0.4033  0.2413
 8269SOL    HW126248   0.811   4.281   5.573  2.3918  0.4721  2.4533
 8269SOL    HW226249   0.707   4.311   5.680 -0.8323 -0.5245 -0.2344
 8270SOL     OW26250   4.406   2.256  11.883  0.2150  0.1405  0.0134
 8270SOL    HW126251   4.428   2.273  11.975 -1.1128 -2.8278  1.0080
 8270SOL    HW226252   4.312   2.268  11.878  0.0421 -1.2810 -0.5196
 8271SOL     OW26253   0.620   1.031   7.188  0.1143 -0.3124 -0.1733
 8271SOL    HW126254   0.658   0.945   7.205  0.2459 -0.2259 -0.0346
 8271SOL    HW226255   0.670   1.066   7.115  0.3796 -0.1475  0.0879
 8272SOL     OW26256   4.910   0.027  10.275  0.5938  0.0244 -0.4701
 8272SOL    HW126257   4.869  -0.030  10.210  0.4859 -0.2781 -0.1439
 8272SOL    HW226258   4.959  -0.034  10.332  0.8461  0.3022 -0.3868
 8273SOL     OW26259   0.748   7.520  12.196 -0.4385 -0.2235 -0.6950
 8273SOL    HW126260   0.726   7.482  12.111 -0.0283 -0.1016 -0.8586
 8273SOL    HW226261   0.831   7.565  12.181 -1.8167  2.4111 -1.0034
 8274SOL     OW26262   0.263   2.421   6.481  0.4895 -0.0672 -0.0089
 8274SOL    HW126263   0.193   2.357   6.481 -0.1205  0.5917  0.3433
 8274SOL    HW226264   0.340   2.373   6.513 -0.4585 -0.0937  2.3762
 8275SOL     OW26265   5.788   0.977   0.436 -0.0457 -0.0900 -0.4668
 8275SOL    HW126266   5.795   1.061   0.481  1.9810 -0.9936  1.0742
 8275SOL    HW226267   5.746   0.919   0.500 -1.8772 -0.1945 -1.6883
 8276SOL     OW26268   4.844   4.996   1.315 -0.0506 -0.2759  0.0988
 8276SOL    HW126269   4.886   4.939   1.379  0.0067  1.8559  2.0715
 8276SOL    HW226270   4.755   5.007   1.347 -0.5298 -0.4560 -1.1120
 8277SOL     OW26271   0.687   0.702   5.255  0.2329 -0.2913  0.3497
 8277SOL    HW126272   0.621   0.662   5.199 -0.8887  0.8648  0.7870
 8277SOL    HW226273   0.672   0.796   5.247  1.4656 -0.0206  0.9136
 8278SOL     OW26274   7.122   6.350   8.731 -0.0086 -0.2037  0.6982
 8278SOL    HW126275   7.074   6.347   8.813 -0.2924 -1.4988  0.5140
 8278SOL    HW226276   7.167   6.265   8.726  0.0457 -0.1281 -0.4490
 8279SOL     OW26277   0.650   2.741   4.343 -0.2236  0.2724  0.0424
 8279SOL    HW126278   0.612   2.680   4.407  0.9799 -0.8948 -0.3277
 8279SOL    HW226279   0.630   2.827   4.379 -1.3639 -0.3239  0.9385
 8280SOL     OW26280   1.518   4.990   2.148  0.1881  0.1480  0.5172
 8280SOL    HW126281   1.474   4.912   2.114  0.0875  0.4925 -0.1587
 8280SOL    HW226282   1.542   5.040   2.070 -0.8804  1.4319  0.9664
 8281SOL     OW26283   0.692   7.021   6.244 -0.1314  0.3123 -0.5781
 8281SOL    HW126284   0.709   7.017   6.149  0.1786 -2.7883 -0.4957
 8281SOL    HW226285   0.600   7.047   6.250  0.3794  2.5734 -1.6092
 8282SOL     OW26286   3.528   2.071   0.435 -1.0713  0.6095 -0.1514
 8282SOL    HW126287   3.562   2.145   0.486  1.2145 -0.0381 -0.6041
 8282SOL    HW226288   3.454   2.038   0.487 -0.3370  1.4419  1.5137
 8283SOL     OW26289   0.213   6.317   8.455  0.1955  0.4608  0.3542
 8283SOL    HW126290   0.126   6.349   8.478  0.5010  0.8088  1.0478
 8283SOL    HW226291   0.253   6.390   8.408 -0.5648 -0.3800 -1.6994
 8284SOL     OW26292   4.757   3.691  10.100 -0.4359  0.2328 -0.3250
 8284SOL    HW126293   4.812   3.737  10.164 -1.3834 -0.5546  1.1052
 8284SOL    HW226294   4.677   3.743  10.097 -1.2143 -0.8710  0.7273
 8285SOL     OW26295   7.206   2.856  10.019  0.1005 -0.5167 -0.2706
 8285SOL    HW126296   7.192   2.951  10.013  1.9396 -0.1560  0.6332
 8285SOL    HW226297   7.224   2.829   9.929  0.8243  0.2184 -0.3558
 8286SOL     OW26298   2.411   7.698  11.774 -0.2933  0.6322 -0.8087
 8286SOL    HW126299   2.429   7.791  11.761  1.2629  0.2018 -2.1015
 8286SOL    HW226300   2.428   7.659  11.688  1.1552 -1.1285  0.2192
 8287SOL     OW26301   6.762   1.640   8.557  0.0631  0.1266  0.3435
 8287SOL    HW126302   6.783   1.615   8.647  0.6740 -0.8632 -0.0660
 8287SOL    HW226303   6.693   1.579   8.531  0.0616  0.2503  0.0539
 8288SOL     OW26304   6.036   1.164   7.858  0.3557 -0.0490 -0.2668
 8288SOL    HW126305   6.074   1.251   7.850 -1.3518  0.8651  0.9203
 8288SOL    HW226306   5.984   1.153   7.778 -1.9040  1.3846  0.8926
 8289SOL     OW26307   2.460   5.605   3.857  0.0478  0.1294  0.4075
 8289SOL    HW126308   2.496   5.543   3.794  0.0994  0.2328  0.3359
 8289SOL    HW226309   2.437   5.551   3.933 -0.0226  0.0042  0.2974
 8290SOL     OW26310   0.807   0.490   6.233 -0.0384 -0.1021  0.4027
 8290SOL    HW126311   0.793   0.542   6.312  0.7003  0.3098  0.2748
 8290SOL    HW226312   0.830   0.403   6.264  1.6296  0.4136  0.6784
 8291SOL     OW26313   6.087   4.334   3.522  0.0808  0.3212 -0.2461
 8291SOL    HW126314   6.118   4.294   3.440  0.9346  0.7213 -0.1278
 8291SOL    HW226315   6.144   4.410   3.535 -0.2845  0.4715  0.5319
 8292SOL     OW26316   2.889   0.222   7.296 -0.4677  0.1661 -0.2454
 8292SOL    HW126317   2.914   0.182   7.213 -2.6830  0.9398 -1.3670
 8292SOL    HW226318   2.960   0.282   7.317  1.1411 -1.5960 -0.4169
 8293SOL     OW26319   7.062   2.953   3.680  0.0258  0.3686 -0.5140
 8293SOL    HW126320   7.087   3.035   3.638  1.4170 -0.4599 -1.3501
 8293SOL    HW226321   7.085   2.885   3.618 -0.7843 -0.7112  0.3077
 8294SOL     OW26322   4.670   1.562   8.648  0.0822 -0.5270 -0.6840
 8294SOL    HW126323   4.623   1.567   8.732  1.5665 -1.3675  0.2348
 8294SOL    HW226324   4.745   1.621   8.659  1.8109 -2.6505 -0.3384
 8295SOL     OW26325   6.902   7.905  10.012 -0.5153 -0.2461  0.2157
 8295SOL    HW126326   6.909   7.848   9.936  0.3738 -0.8475  0.7367
 8295SOL    HW226327   6.817   7.884  10.051 -0.5578 -0.6050 -0.0704
 8296SOL     OW26328   4.973   4.816   8.692  0.6566 -0.0452  0.1705
 8296SOL    HW126329   4.978   4.722   8.709 -2.4816 -0.3227  0.1622
 8296SOL    HW226330   4.883   4.839   8.712  1.1510  2.8631 -0.5011
 8297SOL     OW26331   5.282   5.628   0.453 -0.1714  0.1380  0.4759
 8297SOL    HW126332   5.303   5.678   0.532 -1.5603 -0.4193  1.2251
 8297SOL    HW226333   5.279   5.537   0.483  1.7738 -0.3885 -0.7516
 8298SOL     OW26334   6.379   2.596   7.295  0.4762 -0.5978  0.0515
 8298SOL    HW126335   6.415   2.666   7.241 -2.8160  0.4094 -1.1021
 8298SOL    HW226336   6.368   2.523   7.234 -0.0409 -0.6431  0.1921
 8299SOL     OW26337   4.916   1.703   2.032 -0.4693  0.0119 -0.1553
 8299SOL    HW126338   4.824   1.713   2.011 -0.5682  0.0844  0.3079
 8299SOL    HW226339   4.917   1.649   2.111 -0.2082  1.6607  1.0242
 8300SOL     OW26340   7.145   2.328   8.195  0.1737  0.1686 -0.5308
 8300SOL    HW126341   7.182   2.325   8.283  2.3148  0.5329 -1.3486
 8300SOL    HW226342   7.095   2.409   8.192  1.2900  0.8895 -0.0719
 8301SOL     OW26343   6.567   7.466   8.591  0.0707  0.4493  0.3744
 8301SOL    HW126344   6.625   7.448   8.665 -1.2242  1.3798  1.6562
 8301SOL    HW226345   6.500   7.524   8.626  0.2172  2.1422 -1.8897
 8302SOL     OW26346   6.937   2.196   6.411  0.0454 -0.8242  0.1126
 8302SOL    HW126347   6.962   2.106   6.432  1.6520 -0.2378  0.9455
 8302SOL    HW226348   7.012   2.249   6.441 -1.0747  0.8356  0.1259
 8303SOL     OW26349   0.792   0.552   0.433  0.2799  0.3605  0.0710
 8303SOL    HW126350   0.763   0.578   0.520 -0.8966 -0.0401 -0.1776
 8303SOL    HW226351   0.801   0.457   0.438 -1.0252  0.1751 -0.5546
 8304SOL     OW26352   3.108   3.454   9.781  0.3394 -0.2321 -0.6924
 8304SOL    HW126353   3.090   3.376   9.833 -1.8496  0.8272  0.2646
 8304SOL    HW226354   3.195   3.438   9.744  0.0326 -3.0275 -0.4374
 8305SOL     OW26355   0.825   5.422   4.869  0.2278 -0.0181  0.6533
 8305SOL    HW126356   0.754   5.485   4.856  0.9774  0.7691  0.1588
 8305SOL    HW226357   0.796   5.343   4.824  0.1070  0.6407 -0.4661
 8306SOL     OW26358   2.416   5.200  11.762  0.2669  0.9539  0.0262
 8306SOL    HW126359   2.504   5.198  11.725  0.5046  1.1074  0.5687
 8306SOL    HW226360   2.427   5.243  11.847 -0.5804  2.4618 -0.5886
 8307SOL     OW26361   7.715   4.334   9.443  0.1302 -0.4513  0.0447
 8307SOL    HW126362   7.697   4.355   9.352  0.9432 -2.9131 -0.7752
 8307SOL    HW226363   7.710   4.417   9.489 -0.5422  0.8166 -2.1996
 8308SOL     OW26364   2.197   1.982   1.868  0.1296  0.0752  0.2784
 8308SOL    HW126365   2.288   1.951   1.864 -0.1904 -1.1107  1.4099
 8308SOL    HW226366   2.193   2.033   1.949 -0.5626 -1.2106  1.0933
 8309SOL     OW26367   5.138   5.163   7.832 -0.4547  0.3916  0.4809
 8309SOL    HW126368   5.105   5.089   7.781 -0.7925  0.7137  0.2291
 8309SOL    HW226369   5.089   5.158   7.915  1.4462 -1.2642  1.5802
 8310SOL     OW26370   0.836   1.525   1.536 -0.7757 -0.1603  0.2238
 8310SOL    HW126371   0.752   1.493   1.503 -0.6509  0.0213 -0.2853
 8310SOL    HW226372   0.835   1.504   1.629 -1.2518 -0.4467  0.1588
 8311SOL     OW26373   2.062   7.045   7.143 -0.0261  0.6516 -0.4383
 8311SOL    HW126374   2.155   7.024   7.156 -0.0146  1.2364  0.5864
 8311SOL    HW226375   2.015   6.982   7.198 -0.2461  0.3460 -0.9674
 8312SOL     OW26376   4.962   7.777  10.715  0.4286  0.5252 -0.0104
 8312SOL    HW126377   5.024   7.834  10.668  1.2922 -0.2829  0.1226
 8312SOL    HW226378   4.970   7.803  10.806  0.8015  0.2194  0.0467
 8313SOL     OW26379   7.310   3.095  11.388 -0.3427 -0.0212 -0.3286
 8313SOL    HW126380   7.330   3.009  11.352  0.6234  0.3377 -0.6734
 8313SOL    HW226381   7.215   3.103  11.380 -0.2075 -0.0485 -2.6165
 8314SOL     OW26382   3.750   0.948   8.404 -0.6498 -0.2676  0.2350
 8314SOL    HW126383   3.842   0.928   8.384 -0.5463 -1.8532  1.9661
 8314SOL    HW226384   3.700   0.884   8.353 -0.4942 -2.7024  2.9240
 8315SOL     OW26385   0.804   0.650  10.033 -0.3916  0.1121  0.1952
 8315SOL    HW126386   0.715   0.673  10.005  0.4365  1.9500 -1.1566
 8315SOL    HW226387   0.822   0.707  10.107 -0.6695 -1.0063  1.1597
 8316SOL     OW26388   5.866   2.646   0.709  0.2581 -0.0180 -0.0096
 8316SOL    HW126389   5.859   2.741   0.711 -0.6707 -0.0206 -1.5333
 8316SOL    HW226390   5.778   2.615   0.686  0.1539 -1.3483  1.9823
 8317SOL     OW26391   5.272   2.275   3.470  0.3133 -0.2668  0.2795
 8317SOL    HW126392   5.315   2.218   3.406 -0.8158 -2.4700  1.3721
 8317SOL    HW226393   5.185   2.291   3.432 -0.1194 -1.0352  0.9101
 8318SOL     OW26394   2.118   5.465   4.430 -0.3925  0.0217 -0.3179
 8318SOL    HW126395   2.092   5.427   4.515 -0.8557  0.0180 -0.4570
 8318SOL    HW226396   2.209   5.491   4.443  0.0309 -1.3602 -0.2841
 8319SOL     OW26397   1.498   4.760   6.003 -0.0034 -0.2420  0.3799
 8319SOL    HW126398   1.526   4.791   6.089 -2.9337  0.9256  1.0286
 8319SOL    HW226399   1.442   4.685   6.022 -0.5453 -0.0795 -0.5328
 8320SOL     OW26400   0.174   0.304   5.033 -0.0924  0.1780  0.0947
 8320SOL    HW126401   0.149   0.364   5.103  1.6201  0.8649  0.1617
 8320SOL    HW226402   0.220   0.359   4.969 -2.0134 -0.3202 -1.8658
 8321SOL     OW26403   6.385   6.789   5.888  0.0176 -0.2004 -0.2049
 8321SOL    HW126404   6.466   6.836   5.907 -1.0280  0.8494  2.1384
 8321SOL    HW226405   6.385   6.717   5.952 -0.4133 -0.8274 -0.9012
 8322SOL     OW26406   5.567   5.610   0.186  0.3991  0.0434 -0.2344
 8322SOL    HW126407   5.481   5.646   0.161  0.1922 -0.8296 -0.8573
 8322SOL    HW226408   5.555   5.515   0.179  1.4877 -0.0801 -0.5757
 8323SOL     OW26409   4.421   0.215   7.087  0.1318  0.3323  0.0665
 8323SOL    HW126410   4.476   0.254   7.156 -0.6858 -0.4803  1.2229
 8323SOL    HW226411   4.356   0.283   7.068 -1.1469 -0.2746  1.9122
 8324SOL     OW26412   2.568   0.698  11.799 -0.4096  0.3106 -0.0338
 8324SOL    HW126413   2.511   0.773  11.782 -0.1277  0.6790  0.6084
 8324SOL    HW226414   2.548   0.636  11.729 -0.0715  1.3131 -1.0502
 8325SOL     OW26415   5.094   6.256   5.686 -0.0066 -0.5028  0.3284
 8325SOL    HW126416   5.007   6.218   5.684 -0.1024 -0.3399  1.0876
 8325SOL    HW226417   5.115   6.274   5.594 -0.5119 -1.1176  0.0909
 8326SOL     OW26418   7.683   2.654   0.145  0.4232  0.0146  0.3070
 8326SOL    HW126419   7.594   2.622   0.138  0.0463  0.6709  1.7223
 8326SOL    HW226420   7.675   2.736   0.195  1.5944  1.1275 -1.2236
 8327SOL     OW26421   2.708   1.871   5.266 -0.4953  0.8529  0.2238
 8327SOL    HW126422   2.742   1.819   5.194 -1.0494 -0.4048  0.8217
 8327SOL    HW226423   2.743   1.828   5.345 -1.9554  0.6124  0.7752
 8328SOL     OW26424   2.210   7.654   0.228  0.0086  0.4839  0.0008
 8328SOL    HW126425   2.143   7.721   0.214 -0.8025 -0.5965 -1.6402
 8328SOL    HW226426   2.197   7.592   0.156  2.8132  0.2397 -0.3970
 8329SOL     OW26427   1.188   2.065   5.040  0.6155  0.4092 -0.2881
 8329SOL    HW126428   1.127   1.994   5.018  0.4343 -0.1237  1.6898
 8329SOL    HW226429   1.200   2.113   4.959 -0.9993 -0.5850 -1.1645
 8330SOL     OW26430   7.322   7.639   3.166  0.2697  0.0617  0.0212
 8330SOL    HW126431   7.368   7.671   3.244  0.6604 -0.3080 -0.0567
 8330SOL    HW226432   7.305   7.547   3.184  1.4575 -0.3418 -0.8391
 8331SOL     OW26433   7.640   0.995   1.652 -0.5927  0.0611  0.4261
 8331SOL    HW126434   7.656   0.989   1.558  0.7506 -1.2818  0.7036
 8331SOL    HW226435   7.660   1.086   1.673 -0.6014  0.2994 -0.5309
 8332SOL     OW26436   2.593   7.893  10.514 -0.0987 -0.6366 -0.0507
 8332SOL    HW126437   2.617   7.967  10.569 -0.7403  0.3236 -1.0131
 8332SOL    HW226438   2.560   7.932  10.434 -1.7330 -1.9182 -0.0777
 8333SOL     OW26439   2.063   2.020   0.396  0.4868  0.0948 -0.1386
 8333SOL    HW126440   2.094   2.082   0.330  0.5803  0.1304 -0.0630
 8333SOL    HW226441   1.989   1.976   0.356  0.6001  0.0520 -0.3019
 8334SOL     OW26442   7.047   2.283  10.043 -0.1345 -0.4614  0.4776
 8334SOL    HW126443   7.055   2.244  10.130 -1.1728 -0.1473  0.7340
 8334SOL    HW226444   6.959   2.260  10.015 -0.0865  0.0993 -0.1579
 8335SOL     OW26445   5.128   7.224   8.005  0.2410 -0.5341 -0.2293
 8335SOL    HW126446   5.055   7.262   7.957  1.1336 -1.8947 -2.8627
 8335SOL    HW226447   5.206   7.262   7.965  1.0169 -0.7965  0.9886
 8336SOL     OW26448   4.658   5.520   6.785 -0.8010 -0.8016  0.0732
 8336SOL    HW126449   4.686   5.462   6.714 -2.2684 -1.0245 -0.3448
 8336SOL    HW226450   4.596   5.580   6.744 -0.4924  0.0647  0.8485
 8337SOL     OW26451   3.872   0.143   7.140 -0.3517 -0.0228 -0.2043
 8337SOL    HW126452   3.919   0.220   7.171  1.8871 -0.4879 -2.1280
 8337SOL    HW226453   3.842   0.099   7.219 -1.3384  2.5606  0.9593
 8338SOL     OW26454   5.409   5.878  10.782  0.2003  0.1750  0.1595
 8338SOL    HW126455   5.413   5.804  10.842  0.5752  1.0039  1.1852
 8338SOL    HW226456   5.337   5.857  10.722 -0.0649 -0.7435  0.7898
 8339SOL     OW26457   4.327   4.374   1.672 -0.2583 -0.0389 -0.3761
 8339SOL    HW126458   4.401   4.400   1.727 -1.1094  1.0907  0.2683
 8339SOL    HW226459   4.267   4.329   1.731 -1.0938  1.0217 -0.3714
 8340SOL     OW26460   3.422   1.622   1.650  0.2349  0.0155  0.2318
 8340SOL    HW126461   3.473   1.671   1.585  0.2793 -0.7492 -0.3339
 8340SOL    HW226462   3.346   1.677   1.667  0.1046  0.1264 -0.6497
 8341SOL     OW26463   6.039   3.116   0.874 -0.3105 -0.2558 -0.2840
 8341SOL    HW126464   5.985   3.050   0.831 -0.2981  0.1308 -0.8948
 8341SOL    HW226465   6.042   3.190   0.813 -1.7704  1.0320  1.1102
 8342SOL     OW26466   2.766   1.590   5.456  0.2206  0.3864 -0.0381
 8342SOL    HW126467   2.818   1.668   5.472  0.9597 -0.1683  0.3081
 8342SOL    HW226468   2.823   1.532   5.405  0.1742 -0.4843  0.8790
 8343SOL     OW26469   2.201   4.242   4.531 -0.7695  0.5977  0.3409
 8343SOL    HW126470   2.138   4.226   4.601  0.5097 -0.7076  1.2527
 8343SOL    HW226471   2.286   4.249   4.575  0.1856 -0.9980 -1.0883
 8344SOL     OW26472   5.581   4.125   1.383  0.4376 -0.4568 -0.3303
 8344SOL    HW126473   5.517   4.116   1.453  0.9464  1.7368  0.4888
 8344SOL    HW226474   5.532   4.164   1.310  0.3685 -0.8144 -0.4774
 8345SOL     OW26475   6.741   5.853   6.046  0.2900 -0.6264 -0.2893
 8345SOL    HW126476   6.647   5.849   6.032  0.1276 -0.7329  0.7681
 8345SOL    HW226477   6.760   5.780   6.104  0.3876  1.6733  2.8112
 8346SOL     OW26478   2.777   2.111   8.660  0.2777  0.3423  0.2508
 8346SOL    HW126479   2.743   2.183   8.714 -0.7561  0.3548 -0.3976
 8346SOL    HW226480   2.699   2.074   8.618  0.6552 -1.7644  1.2829
 8347SOL     OW26481   2.690   7.744   7.319  0.0727 -0.5128 -0.4945
 8347SOL    HW126482   2.653   7.831   7.332  0.7499  0.2725 -3.1854
 8347SOL    HW226483   2.637   7.687   7.374 -0.9783  1.4620  0.6435
 8348SOL     OW26484   3.754   0.579   5.245 -0.1526  0.1127 -0.0606
 8348SOL    HW126485   3.686   0.512   5.258 -0.7764  0.4871 -1.2057
 8348SOL    HW226486   3.792   0.557   5.160  0.1233  0.8070 -0.1187
 8349SOL     OW26487   1.139   3.049   5.072 -0.2007  0.1175  0.7567
 8349SOL    HW126488   1.196   3.106   5.020 -0.2392 -1.4426 -1.0905
 8349SOL    HW226489   1.139   3.089   5.159  2.3782  1.0983  0.3900
 8350SOL     OW26490   0.090   0.486  10.303  0.5556 -0.3082 -0.1570
 8350SOL    HW126491   0.182   0.501  10.324  0.8256 -0.5321 -1.1132
 8350SOL    HW226492   0.091   0.404  10.254 -0.0046  0.2841 -1.1803
 8351SOL     OW26493   5.547   7.304   2.125  0.3773  0.0284  0.2076
 8351SOL    HW126494   5.486   7.278   2.194  1.9001 -2.9124  0.6333
 8351SOL    HW226495   5.626   7.332   2.173  0.1248  1.8304 -0.3543
 8352SOL     OW26496   3.969   5.166  11.655  0.3405 -0.0796 -0.6824
 8352SOL    HW126497   4.050   5.184  11.703  0.0937  0.4135 -0.4464
 8352SOL    HW226498   3.997   5.160  11.563  0.5987  0.4298 -0.6423
 8353SOL     OW26499   2.132   0.148   0.133  0.0481  0.6839 -0.1337
 8353SOL    HW126500   2.176   0.232   0.121 -2.7969  2.6304  1.7576
 8353SOL    HW226501   2.070   0.142   0.061  1.3289 -0.6749 -1.1851
 8354SOL     OW26502   7.802   4.960   3.827 -0.2162  0.2761  0.4123
 8354SOL    HW126503   7.746   4.956   3.904 -0.5724  0.9039  0.1952
 8354SOL    HW226504   7.757   5.020   3.767  0.8295  1.0440  0.3509
 8355SOL     OW26505   4.578   0.365   8.298 -0.4598 -0.7554  0.3546
 8355SOL    HW126506   4.524   0.328   8.368 -1.3120  0.8905  0.6231
 8355SOL    HW226507   4.518   0.378   8.225 -0.3071  0.4782  0.4223
 8356SOL     OW26508   5.955   0.477   7.730 -0.0170 -0.6233 -0.2064
 8356SOL    HW126509   5.897   0.415   7.686 -1.0660 -0.5685  1.0626
 8356SOL    HW226510   5.896   0.540   7.771  1.0064  0.7987 -0.8237
 8357SOL     OW26511   7.827   7.305   2.654  0.3299  0.4478  0.9337
 8357SOL    HW126512   7.897   7.254   2.614  0.5817  1.8374 -0.5054
 8357SOL    HW226513   7.789   7.355   2.581 -1.8588  0.0900  1.7597
 8358SOL     OW26514   2.426   6.534   1.809  0.1621  0.3954  0.0888
 8358SOL    HW126515   2.351   6.551   1.867 -0.0780  0.6178 -0.2851
 8358SOL    HW226516   2.409   6.447   1.773  1.6006 -0.9366  2.3283
 8359SOL     OW26517   4.481   6.634   4.350 -0.6536 -0.0017 -0.1203
 8359SOL    HW126518   4.480   6.628   4.254 -0.7058  1.1648 -0.2083
 8359SOL    HW226519   4.498   6.727   4.368  0.0473 -0.3285  1.0048
 8360SOL     OW26520   3.350   3.594  10.367  0.0911 -0.6063  0.0560
 8360SOL    HW126521   3.395   3.659  10.313 -0.5530  0.9512  1.3334
 8360SOL    HW226522   3.365   3.511  10.322  0.5429  0.4729 -1.8851
 8361SOL     OW26523   4.810   6.912   6.746 -0.1045 -0.7924 -0.1705
 8361SOL    HW126524   4.820   6.840   6.684 -0.3688 -0.1254 -0.9992
 8361SOL    HW226525   4.754   6.976   6.701  0.3936  0.0809  0.4139
 8362SOL     OW26526   0.210   6.317   7.630  0.0891  0.5957 -0.5352
 8362SOL    HW126527   0.192   6.263   7.553 -1.7820 -0.5788  0.6269
 8362SOL    HW226528   0.244   6.255   7.695  2.3194  1.6861 -0.5731
 8363SOL     OW26529   2.044   1.498  12.367 -0.1722 -0.9814 -0.2970
 8363SOL    HW126530   2.085   1.437  12.427  0.0246 -0.4951  0.0703
 8363SOL    HW226531   2.008   1.443  12.297  0.4588 -1.4690 -0.2464
 8364SOL     OW26532   4.075   3.036   0.457 -0.2812 -0.5482  0.1338
 8364SOL    HW126533   4.139   3.082   0.512 -1.0204  2.0224 -0.9945
 8364SOL    HW226534   4.086   2.944   0.479  0.5295  0.2022  3.4156
 8365SOL     OW26535   0.292   1.197  11.555 -0.0439  0.3219 -0.0202
 8365SOL    HW126536   0.372   1.146  11.569 -0.0598  0.4344  0.4947
 8365SOL    HW226537   0.319   1.288  11.571 -0.1121  0.4371 -0.5372
 8366SOL     OW26538   1.136   0.570  11.613 -0.4767  0.2890 -0.4409
 8366SOL    HW126539   1.105   0.657  11.637 -2.6432 -0.9845  1.8560
 8366SOL    HW226540   1.109   0.559  11.522 -0.6454  1.7959 -0.6006
 8367SOL     OW26541   5.394   5.528   4.273  0.0411  0.0757 -0.3765
 8367SOL    HW126542   5.329   5.504   4.207 -1.1817  1.1234  0.4094
 8367SOL    HW226543   5.354   5.503   4.357  0.5815  0.8559  0.1251
 8368SOL     OW26544   1.653   7.922   6.850  0.2818  0.2413 -0.2499
 8368SOL    HW126545   1.610   7.838   6.838 -0.7390  0.7309 -0.1030
 8368SOL    HW226546   1.590   7.987   6.818  0.8507  0.9831  0.0968
 8369SOL     OW26547   0.487   2.742   2.847 -0.2244 -0.5667  0.0944
 8369SOL    HW126548   0.580   2.740   2.871 -0.3902  0.6417  0.9284
 8369SOL    HW226549   0.457   2.829   2.875 -0.6369  0.7220 -3.7041
 8370SOL     OW26550   2.670   7.652   0.149 -0.2966  0.1569  0.2505
 8370SOL    HW126551   2.673   7.588   0.221  1.0572  1.5376  1.5119
 8370SOL    HW226552   2.704   7.604   0.073 -0.9229 -1.0877  0.7189
 8371SOL     OW26553   3.999   0.469   8.717  0.2795 -0.2431 -0.1505
 8371SOL    HW126554   4.047   0.474   8.800 -1.2715  0.2099  0.7625
 8371SOL    HW226555   3.915   0.430   8.740 -0.0844 -0.3633 -1.5751
 8372SOL     OW26556   0.566   7.902   0.143 -0.3164 -0.6702 -0.1164
 8372SOL    HW126557   0.589   7.812   0.167 -1.9789 -0.6568  1.7659
 8372SOL    HW226558   0.580   7.906   0.048 -2.2295 -3.6014 -0.6587
 8373SOL     OW26559   1.884   6.278   6.824  0.1475  0.1702 -0.1726
 8373SOL    HW126560   1.871   6.366   6.790  2.1650  0.1302 -1.1800
 8373SOL    HW226561   1.978   6.262   6.814  0.5022 -0.7102  3.4240
 8374SOL     OW26562   7.769   0.732   6.529 -0.0107 -0.2943  0.2907
 8374SOL    HW126563   7.717   0.734   6.449 -0.5216  0.5120  0.6310
 8374SOL    HW226564   7.768   0.640   6.556  0.7285 -0.7001 -0.9754
 8375SOL     OW26565   4.594   5.151   6.514  0.0296 -0.7271  0.0573
 8375SOL    HW126566   4.509   5.124   6.550  0.2019  0.7554  1.7124
 8375SOL    HW226567   4.654   5.082   6.541 -0.2306 -0.6344  0.9224
 8376SOL     OW26568   1.098   4.355   4.755 -0.0390  0.2528 -0.4050
 8376SOL    HW126569   1.160   4.426   4.768 -0.1580  0.6489 -1.8482
 8376SOL    HW226570   1.066   4.366   4.666 -0.6561 -1.1520 -0.3962
 8377SOL     OW26571   7.713   2.894   3.840  0.7322  0.1053 -0.0319
 8377SOL    HW126572   7.789   2.949   3.860  0.6368 -0.1138  0.9995
 8377SOL    HW226573   7.637   2.948   3.865  0.6365 -0.4395  0.8958
 8378SOL     OW26574   5.834   4.194   8.518 -0.3497  0.3751 -0.1365
 8378SOL    HW126575   5.925   4.223   8.523 -0.9022  1.9470  1.8048
 8378SOL    HW226576   5.819   4.181   8.424  1.6700  0.6827 -0.5526
 8379SOL     OW26577   2.788   1.588   7.257  0.1986 -0.1032  0.4056
 8379SOL    HW126578   2.750   1.668   7.221  1.4523  0.8912  1.1971
 8379SOL    HW226579   2.728   1.519   7.231 -0.4905  0.9799 -1.0029
 8380SOL     OW26580   4.198   7.203  11.386 -0.1846  0.2686 -0.3790
 8380SOL    HW126581   4.277   7.194  11.333  0.5425 -0.9509  0.8380
 8380SOL    HW226582   4.192   7.296  11.406  1.7854  0.2198  0.7045
 8381SOL     OW26583   3.045   0.537   4.871 -0.3372  0.3262  0.2811
 8381SOL    HW126584   3.065   0.492   4.788 -0.9261 -3.4432  1.9750
 8381SOL    HW226585   3.130   0.545   4.914 -0.0591  2.1158 -0.4916
 8382SOL     OW26586   7.455   5.596   1.196 -0.8936  0.1452 -1.1425
 8382SOL    HW126587   7.487   5.588   1.285 -1.4155 -1.0213 -1.0428
 8382SOL    HW226588   7.359   5.598   1.205 -0.9265  2.4397 -1.5094
 8383SOL     OW26589   1.650   4.595   7.904  0.2991  0.3102  0.1949
 8383SOL    HW126590   1.598   4.528   7.859  0.0714 -0.2487  1.2444
 8383SOL    HW226591   1.587   4.642   7.958  0.7527  0.1587  0.8658
 8384SOL     OW26592   4.446   3.742   0.410  0.9517  0.5726 -0.1176
 8384SOL    HW126593   4.406   3.771   0.328  0.0507  0.1714  0.1663
 8384SOL    HW226594   4.424   3.649   0.416  0.5724  0.7055  0.8172
 8385SOL     OW26595   5.242   0.032   1.532  0.1686  0.2110 -0.2248
 8385SOL    HW126596   5.275   0.016   1.621  1.0048 -0.5791 -0.6569
 8385SOL    HW226597   5.150   0.004   1.536 -0.0926  1.1092  0.6321
 8386SOL     OW26598   2.035   4.080   5.422  0.5688  0.1401  0.4890
 8386SOL    HW126599   2.121   4.087   5.379  0.9225 -1.0757  0.9649
 8386SOL    HW226600   2.047   4.127   5.505  1.8058 -2.6337  2.0078
 8387SOL     OW26601   7.768   3.786   8.160 -0.4971  0.4256  0.2932
 8387SOL    HW126602   7.676   3.813   8.165  0.0433  2.5943 -0.4336
 8387SOL    HW226603   7.805   3.811   8.244 -0.8328 -1.8320  1.1973
 8388SOL     OW26604   6.220   6.881   0.389  0.3243  0.1782 -0.3867
 8388SOL    HW126605   6.297   6.846   0.434 -1.1093 -1.8009  0.6607
 8388SOL    HW226606   6.203   6.965   0.432  1.8401  0.6501 -0.6258
 8389SOL     OW26607   7.791   4.161   8.913  0.1451  0.0774 -0.4071
 8389SOL    HW126608   7.713   4.165   8.857 -0.6354 -0.1489  0.6528
 8389SOL    HW226609   7.863   4.147   8.851 -0.6366  0.3082 -1.4065
 8390SOL     OW26610   5.922   6.823  10.748  0.1430 -0.7404  0.4020
 8390SOL    HW126611   5.938   6.779  10.832  2.3285 -1.2277 -0.1874
 8390SOL    HW226612   5.945   6.915  10.765 -0.2976 -0.6567  0.5575
 8391SOL     OW26613   2.318   4.184   1.706 -0.2062 -0.6849 -0.2814
 8391SOL    HW126614   2.403   4.140   1.696  0.0408 -0.0934 -0.8520
 8391SOL    HW226615   2.300   4.180   1.799  0.7006 -0.3608 -0.0777
 8392SOL     OW26616   5.131   7.288   6.746  0.4107 -0.4049 -0.1381
 8392SOL    HW126617   5.117   7.382   6.752 -0.1063 -0.4556 -0.4491
 8392SOL    HW226618   5.062   7.257   6.687  1.2275 -0.8284 -0.9003
 8393SOL     OW26619   2.307   4.431   5.544 -0.0622  0.1708  0.1228
 8393SOL    HW126620   2.288   4.372   5.471  0.8409  1.0133 -0.8222
 8393SOL    HW226621   2.402   4.432   5.550 -0.1368 -0.9000  2.1969
 8394SOL     OW26622   0.817   2.408   9.703  0.2161 -0.2159 -0.5273
 8394SOL    HW126623   0.863   2.351   9.641  0.9780 -0.3138  0.1119
 8394SOL    HW226624   0.819   2.360   9.786  1.8420  1.1642  0.3000
 8395SOL     OW26625   2.646   6.929   8.917  0.2812  0.3787  0.4336
 8395SOL    HW126626   2.607   6.957   9.000  0.5340 -3.7860  2.1917
 8395SOL    HW226627   2.578   6.876   8.876  1.5736 -1.0831  0.0902
 8396SOL     OW26628   6.680   6.209  10.001  0.4089  0.6008 -0.3715
 8396SOL    HW126629   6.636   6.247   9.925 -0.2206  0.9443  0.1618
 8396SOL    HW226630   6.726   6.282  10.042 -0.7762  0.8137  0.6357
 8397SOL     OW26631   4.235   2.275   0.203 -0.2499 -0.2467  0.1836
 8397SOL    HW126632   4.229   2.319   0.118  0.2029  0.2334  0.3952
 8397SOL    HW226633   4.263   2.186   0.181 -2.0286 -0.7267 -0.3214
 8398SOL     OW26634   6.624   7.377   6.546 -0.0704  0.2293  0.3688
 8398SOL    HW126635   6.550   7.406   6.599 -0.0703 -1.3953  1.3337
 8398SOL    HW226636   6.701   7.394   6.600  0.1222  0.4488  0.0293
 8399SOL     OW26637   1.730   3.420  10.179 -0.2123  0.6061 -0.0071
 8399SOL    HW126638   1.823   3.443  10.190 -0.5731  2.2471 -0.1210
 8399SOL    HW226639   1.727   3.326  10.196  0.9594  1.0142  3.2167
 8400SOL     OW26640   3.057   6.616  11.342  0.1867  0.2233 -0.0107
 8400SOL    HW126641   3.039   6.668  11.421  1.5678 -0.4139  0.7515
 8400SOL    HW226642   3.128   6.558  11.368  0.6685  0.0083 -1.7438
 8401SOL     OW26643   2.659   4.741   2.337 -0.0728  0.0745 -0.4155
 8401SOL    HW126644   2.566   4.727   2.324  0.0935  0.0367 -1.6523
 8401SOL    HW226645   2.687   4.668   2.393 -0.5488 -0.6063 -1.0471
 8402SOL     OW26646   7.064   3.587   4.004 -0.4728 -0.3346 -0.1047
 8402SOL    HW126647   7.104   3.582   3.916 -2.7706 -0.2095 -1.2278
 8402SOL    HW226648   7.012   3.507   4.011  0.0176 -0.5545  1.3760
 8403SOL     OW26649   4.886   4.957   4.881  0.1884  0.2025  0.4575
 8403SOL    HW126650   4.841   4.980   4.962  0.9756 -1.1348  1.3204
 8403SOL    HW226651   4.941   4.882   4.905 -1.1928 -1.6747 -1.7878
 8404SOL     OW26652   3.232   0.484   5.182  0.0403 -0.0429 -0.1025
 8404SOL    HW126653   3.267   0.487   5.093  1.3833  0.5454  0.4244
 8404SOL    HW226654   3.292   0.538   5.233 -1.3180  0.5180  0.9662
 8405SOL     OW26655   4.166   5.858   9.928  0.2558 -0.2942 -0.5116
 8405SOL    HW126656   4.095   5.794   9.937  1.5351 -1.6024  0.7685
 8405SOL    HW226657   4.135   5.919   9.861 -1.5055 -1.5789 -0.9278
 8406SOL     OW26658   5.401   5.774   8.526 -0.5227  0.4422  0.6533
 8406SOL    HW126659   5.495   5.787   8.537 -0.4581  0.7535 -0.1777
 8406SOL    HW226660   5.387   5.681   8.540  0.1824  0.0660 -0.9984
 8407SOL     OW26661   7.886   1.737   3.033  0.1228 -0.0429  0.2153
 8407SOL    HW126662   7.847   1.699   2.954 -0.1482  1.9446 -0.6560
 8407SOL    HW226663   7.948   1.670   3.063 -1.2050 -1.6794 -0.5236
 8408SOL     OW26664   6.303   5.981   0.252 -0.6631 -0.0783 -0.2317
 8408SOL    HW126665   6.214   6.001   0.279 -0.5265  1.0224 -0.5358
 8408SOL    HW226666   6.294   5.941   0.166 -0.8168  1.0833 -0.7764
 8409SOL     OW26667   7.843   1.064   7.513  0.3400 -0.4684 -0.6921
 8409SOL    HW126668   7.817   1.153   7.536  0.4299 -1.0686  1.9695
 8409SOL    HW226669   7.939   1.068   7.508  0.5420 -0.8289  1.7270
 8410SOL     OW26670   5.094   2.796   9.221 -0.0035  0.4191 -0.0919
 8410SOL    HW126671   5.003   2.786   9.251 -0.2377 -0.8459 -1.1364
 8410SOL    HW226672   5.086   2.835   9.134  0.3861 -0.7975 -0.6805
 8411SOL     OW26673   3.425   3.419   1.664 -0.1043  0.5669  0.1220
 8411SOL    HW126674   3.341   3.420   1.618 -1.2551  0.2363  2.0647
 8411SOL    HW226675   3.408   3.465   1.746  1.5880  0.3970  0.6182
 8412SOL     OW26676   5.756   1.229   4.044  0.4434 -0.1074 -0.3717
 8412SOL    HW126677   5.729   1.192   4.129  0.7097 -0.1151 -0.2897
 8412SOL    HW226678   5.678   1.274   4.012 -0.0851 -1.2945 -0.7811
 8413SOL     OW26679   6.222   4.701  11.014 -0.2043  0.7479  0.3365
 8413SOL    HW126680   6.165   4.777  11.023 -2.7332 -1.2208  2.6746
 8413SOL    HW226681   6.197   4.643  11.086  1.6581 -2.2626 -1.2061
 8414SOL     OW26682   6.123   7.528   9.251  0.4994  0.1102 -0.6653
 8414SOL    HW126683   6.163   7.466   9.311  1.9310 -0.9074 -2.5586
 8414SOL    HW226684   6.038   7.491   9.230 -0.7636  1.3034  1.8838
 8415SOL     OW26685   1.203   3.741  11.521  0.0066 -0.2914 -0.3861
 8415SOL    HW126686   1.194   3.701  11.434 -1.4211 -0.9868  0.0540
 8415SOL    HW226687   1.232   3.669  11.577  0.1044 -0.0375 -0.1092
 8416SOL     OW26688   7.072   3.452   5.393  0.4862 -0.2340 -0.1453
 8416SOL    HW126689   7.094   3.419   5.305  0.8606  1.3823 -0.6879
 8416SOL    HW226690   6.989   3.410   5.413  1.7627 -2.9124  0.0014
 8417SOL     OW26691   6.789   2.276   2.087 -0.1563  0.3752  0.2714
 8417SOL    HW126692   6.747   2.219   2.023 -0.4778 -0.2757  1.0527
 8417SOL    HW226693   6.724   2.289   2.156  0.5851  0.0991  1.0466
 8418SOL     OW26694   5.530   1.755   8.195  0.0984  0.4175 -0.8872
 8418SOL    HW126695   5.590   1.768   8.121 -0.3237  2.5321 -0.9244
 8418SOL    HW226696   5.492   1.841   8.211 -1.1214 -0.3493  0.7155
 8419SOL     OW26697   3.486   4.146   2.013 -0.6625  0.0775 -0.5610
 8419SOL    HW126698   3.460   4.099   2.093  1.6026 -0.3074  0.0208
 8419SOL    HW226699   3.506   4.077   1.950  0.7075  0.2695 -0.3673
 8420SOL     OW26700   4.537   1.889   9.230 -0.0769  0.4524 -0.2766
 8420SOL    HW126701   4.560   1.978   9.205  1.5580 -0.1135 -0.9772
 8420SOL    HW226702   4.511   1.895   9.321  2.1740  1.3672  0.3728
 8421SOL     OW26703   4.692   3.286   3.467 -0.3937 -0.3647 -0.0486
 8421SOL    HW126704   4.622   3.244   3.417 -1.6902  0.7309  0.7572
 8421SOL    HW226705   4.745   3.331   3.401 -0.6175 -0.9599 -0.6510
 8422SOL     OW26706   0.535   2.539   7.122  0.1800 -0.1303 -0.2072
 8422SOL    HW126707   0.562   2.594   7.196 -1.6147 -0.0029  0.3942
 8422SOL    HW226708   0.527   2.451   7.158 -1.8477  0.1296  0.0990
 8423SOL     OW26709   0.121   5.086   4.553 -0.1024  0.0989  0.8307
 8423SOL    HW126710   0.210   5.072   4.521 -0.6378 -0.3517 -0.5570
 8423SOL    HW226711   0.131   5.098   4.647  1.3111 -0.9329  0.8472
 8424SOL     OW26712   6.742   7.325   6.317 -0.5250  0.5495  0.2051
 8424SOL    HW126713   6.689   7.367   6.385 -0.9045 -2.1372  1.6762
 8424SOL    HW226714   6.814   7.386   6.302  0.1527  0.8205  3.8010
 8425SOL     OW26715   0.085   5.733   7.020  0.0533  0.6640  0.4974
 8425SOL    HW126716   0.056   5.801   6.959  1.8215  1.1932  0.1858
 8425SOL    HW226717   0.092   5.778   7.104  2.1047  1.1493  0.1075
 8426SOL     OW26718   6.619   2.036  11.068  0.6899 -0.3154  0.1611
 8426SOL    HW126719   6.642   1.944  11.083  1.2361 -0.4485 -1.2740
 8426SOL    HW226720   6.582   2.065  11.151  1.5747 -1.5062  1.0206
 8427SOL     OW26721   0.923   3.327  10.717  0.1721  0.2405  0.5508
 8427SOL    HW126722   0.967   3.379  10.649  2.9421 -2.0379  0.4123
 8427SOL    HW226723   0.857   3.276  10.670  2.0941 -1.3499 -0.5952
 8428SOL     OW26724   4.817   2.398   1.281  0.2875 -0.4145 -0.0635
 8428SOL    HW126725   4.762   2.467   1.244  0.2033 -1.2433 -1.6061
 8428SOL    HW226726   4.815   2.412   1.375 -3.2122 -0.8558  0.0321
 8429SOL     OW26727   7.743   4.606   5.243  0.5734 -0.0494  0.3384
 8429SOL    HW126728   7.772   4.553   5.170 -0.4686 -0.6159  0.3192
 8429SOL    HW226729   7.648   4.598   5.243  0.5834 -0.9428  2.4015
 8430SOL     OW26730   1.711   1.830   5.025  0.2491 -0.0262  0.0069
 8430SOL    HW126731   1.716   1.840   4.930 -0.7324 -1.4992 -0.2389
 8430SOL    HW226732   1.657   1.904   5.055 -0.1244 -0.0149 -0.6888
 8431SOL     OW26733   2.388   2.414  10.704 -0.0312  0.6641 -0.4749
 8431SOL    HW126734   2.333   2.373  10.638  0.8665  0.2536 -0.9672
 8431SOL    HW226735   2.327   2.435  10.775 -0.5699 -1.2603 -0.3141
 8432SOL     OW26736   4.048   3.669   9.879 -0.3655 -0.1526  0.0039
 8432SOL    HW126737   4.010   3.732   9.818  0.6956  0.8885  0.3839
 8432SOL    HW226738   3.997   3.679   9.959  1.1115  1.8175  0.7794
 8433SOL     OW26739   0.422   1.172   1.372  0.1067 -0.4827  0.1771
 8433SOL    HW126740   0.390   1.084   1.396  1.6089 -1.0634  0.1626
 8433SOL    HW226741   0.455   1.162   1.283 -0.8376  0.4303 -0.2979
 8434SOL     OW26742   2.416   3.830   7.816 -0.4390  0.5176 -0.2131
 8434SOL    HW126743   2.493   3.884   7.798 -0.6379  0.8936  0.0468
 8434SOL    HW226744   2.374   3.873   7.891 -0.4476 -0.1537  0.1728
 8435SOL     OW26745   1.964   6.258   4.438  0.1804 -0.7501  0.1401
 8435SOL    HW126746   2.047   6.304   4.450  0.2967 -0.7391 -0.6471
 8435SOL    HW226747   1.915   6.313   4.376  0.9029 -2.3878 -1.9634
 8436SOL     OW26748   1.821   3.341   8.297  0.1903 -0.3314  0.2023
 8436SOL    HW126749   1.737   3.344   8.251  0.3158 -0.2737 -0.0210
 8436SOL    HW226750   1.859   3.427   8.285  0.1994 -0.2972  0.4628
 8437SOL     OW26751   3.016   1.447  11.338 -0.1606 -0.3237  0.7775
 8437SOL    HW126752   3.005   1.390  11.261  1.1335  0.5300 -0.0733
 8437SOL    HW226753   3.021   1.387  11.412  2.1415 -1.4544 -0.1942
 8438SOL     OW26754   2.227   4.573   0.293  0.3473 -0.2293  0.0679
 8438SOL    HW126755   2.296   4.518   0.256  0.6043  0.2586 -0.1844
 8438SOL    HW226756   2.172   4.595   0.218 -0.0012 -0.4911  0.2432
 8439SOL     OW26757   2.713   7.810   5.550 -0.1376  0.4808  0.0641
 8439SOL    HW126758   2.697   7.828   5.642 -0.4161  1.5848 -0.1755
 8439SOL    HW226759   2.763   7.729   5.549 -0.4068  0.2873  1.1630
 8440SOL     OW26760   4.841   2.477   4.680 -0.7115  0.0358 -0.0365
 8440SOL    HW126761   4.823   2.535   4.606  2.2445  0.2595 -0.6947
 8440SOL    HW226762   4.903   2.526   4.734  0.4950 -1.8062  0.3126
 8441SOL     OW26763   0.316   7.757   6.018  0.3887  0.0394  0.0282
 8441SOL    HW126764   0.300   7.689   5.953  0.1427  0.3886 -0.2763
 8441SOL    HW226765   0.376   7.716   6.080  0.1069 -0.5128 -0.0578
 8442SOL     OW26766   2.867   5.851   7.901 -0.4996 -0.2911  0.5178
 8442SOL    HW126767   2.877   5.878   7.810  0.3069 -2.0254  0.0427
 8442SOL    HW226768   2.923   5.910   7.950  0.3422 -0.3750 -0.3235
 8443SOL     OW26769   5.030   2.412   2.982 -0.0836 -0.3102  0.5405
 8443SOL    HW126770   5.029   2.500   3.018 -0.9872 -0.0037 -0.1912
 8443SOL    HW226771   5.015   2.424   2.888  0.4408 -1.1987  0.3353
 8444SOL     OW26772   0.343   1.330   8.485 -0.4824 -0.7624  0.1623
 8444SOL    HW126773   0.327   1.421   8.458 -0.3466 -1.1412 -1.2689
 8444SOL    HW226774   0.438   1.326   8.499 -0.7584 -0.1160  2.5091
 8445SOL     OW26775   3.595   2.765   4.179 -0.0455 -0.1861  0.5272
 8445SOL    HW126776   3.576   2.858   4.171 -1.4489 -0.4123  0.8607
 8445SOL    HW226777   3.598   2.734   4.088  1.8753  0.4225  0.3561
 8446SOL     OW26778   3.843   7.877   5.099  0.3382 -0.7200  0.0166
 8446SOL    HW126779   3.850   7.784   5.075  3.3238 -0.2468 -1.3637
 8446SOL    HW226780   3.816   7.876   5.191 -0.2248 -2.9244 -0.1034
 8447SOL     OW26781   5.887   1.624   8.085 -0.2282  0.4645  0.1001
 8447SOL    HW126782   5.944   1.660   8.152  1.1346 -1.6157  0.1650
 8447SOL    HW226783   5.855   1.542   8.123 -0.5175 -0.0770 -1.2489
 8448SOL     OW26784   3.194   7.625   6.623  0.2864  0.2130  0.0643
 8448SOL    HW126785   3.125   7.658   6.564 -0.3688  0.5682  1.0091
 8448SOL    HW226786   3.162   7.539   6.650  0.8900 -0.2265 -0.5673
 8449SOL     OW26787   6.168   0.293   7.975 -0.1794 -0.4414  0.1561
 8449SOL    HW126788   6.242   0.260   8.027  1.8129  2.9446 -0.2035
 8449SOL    HW226789   6.202   0.372   7.933 -3.0380 -0.6308 -2.8723
 8450SOL     OW26790   0.711   0.283   0.739  0.2022 -0.1250  0.3119
 8450SOL    HW126791   0.617   0.295   0.727  0.1945  0.4442  0.8756
 8450SOL    HW226792   0.745   0.273   0.650 -0.5489 -1.6818  0.1761
 8451SOL     OW26793   7.718   5.606   7.847 -0.4251 -0.3153 -0.8288
 8451SOL    HW126794   7.760   5.688   7.818  0.8548 -0.6073  0.0984
 8451SOL    HW226795   7.744   5.542   7.781 -0.8807 -0.1192 -1.2023
 8452SOL     OW26796   0.272   0.794   5.007  0.3855 -0.1585  0.5561
 8452SOL    HW126797   0.321   0.780   4.926 -1.0477 -2.2172 -0.0405
 8452SOL    HW226798   0.265   0.707   5.046 -0.5357  0.5132  1.9528
 8453SOL     OW26799   5.959   0.819   5.779  0.4310 -0.3246 -0.3567
 8453SOL    HW126800   6.019   0.820   5.704 -0.3056  2.7767 -1.0754
 8453SOL    HW226801   6.008   0.861   5.849  0.0436 -0.3334 -0.0789
 8454SOL     OW26802   5.894   1.516   4.121 -0.1048 -0.1361 -0.4393
 8454SOL    HW126803   5.858   1.447   4.066 -0.2251  0.8039 -1.5776
 8454SOL    HW226804   5.974   1.543   4.077  0.7838 -0.6214  0.8414
 8455SOL     OW26805   2.279   2.980   4.992 -0.4251 -0.1388  0.2220
 8455SOL    HW126806   2.342   2.921   4.951 -1.0825 -1.0497  0.5027
 8455SOL    HW226807   2.299   3.066   4.955  0.1598 -0.6347 -0.6339
 8456SOL     OW26808   6.445   5.328  11.038  0.3909 -0.4597  0.2745
 8456SOL    HW126809   6.352   5.336  11.017  0.7322 -0.7141 -1.5433
 8456SOL    HW226810   6.486   5.307  10.954  1.9509 -1.4798  1.2408
 8457SOL     OW26811   0.899   4.546   2.460  0.2322 -0.4135 -0.3798
 8457SOL    HW126812   0.973   4.605   2.475 -0.1584 -0.1384  0.4913
 8457SOL    HW226813   0.939   4.458   2.457  0.8899 -0.0998 -2.2521
 8458SOL     OW26814   5.766   0.523   8.035 -0.3111  0.0986 -0.7601
 8458SOL    HW126815   5.745   0.615   8.018 -0.9401 -0.4251 -3.0752
 8458SOL    HW226816   5.695   0.492   8.091  1.0889  1.5222  2.0405
 8459SOL     OW26817   0.882   7.363   3.148  0.1164  0.7806  0.7410
 8459SOL    HW126818   0.894   7.396   3.237 -0.6536  0.4376  0.9833
 8459SOL    HW226819   0.796   7.397   3.122 -0.4524 -0.5658  0.7956
 8460SOL     OW26820   6.138   5.217   7.278  0.2887 -0.7128 -0.3729
 8460SOL    HW126821   6.197   5.179   7.342  1.2014  0.1933 -0.6533
 8460SOL    HW226822   6.162   5.174   7.195  0.1499 -0.7757 -0.3808
 8461SOL     OW26823   4.969   1.001   7.835  0.6590  0.4059  0.0773
 8461SOL    HW126824   4.993   1.026   7.746  1.9277 -2.9721 -0.6949
 8461SOL    HW226825   4.942   0.909   7.827 -0.7849  0.4779  2.9636
 8462SOL     OW26826   7.551   3.604   3.819  0.0784  0.2495  0.3230
 8462SOL    HW126827   7.573   3.660   3.744  1.2000 -0.3349  0.2033
 8462SOL    HW226828   7.462   3.631   3.843  0.0719  1.1182 -0.6024
 8463SOL     OW26829   4.810   1.711   6.974 -0.4999  0.2805 -0.3746
 8463SOL    HW126830   4.754   1.758   7.037 -1.4816  1.2789 -1.9075
 8463SOL    HW226831   4.899   1.729   7.004 -0.9368  0.1760  1.0954
 8464SOL     OW26832   5.074   3.194   9.280  0.3859 -0.1166  0.2897
 8464SOL    HW126833   5.044   3.282   9.300  1.6133  0.1853  0.9484
 8464SOL    HW226834   5.009   3.136   9.320  0.1268  0.5045  0.7772
 8465SOL     OW26835   4.990   5.898   0.104 -0.4475  0.3811 -0.0092
 8465SOL    HW126836   4.964   5.825   0.048  1.5196  0.3287 -0.9126
 8465SOL    HW226837   5.024   5.857   0.184 -0.8421  0.3754  0.1587
 8466SOL     OW26838   7.149   2.994   0.384  0.2446 -0.2675  0.0358
 8466SOL    HW126839   7.235   3.014   0.421  0.7470 -1.9720 -0.1014
 8466SOL    HW226840   7.133   2.903   0.410 -0.4207 -0.7808 -1.9943
 8467SOL     OW26841   0.522   6.490  10.884  0.4082  0.4580 -0.0666
 8467SOL    HW126842   0.433   6.514  10.859  0.7715  2.1729  0.1823
 8467SOL    HW226843   0.541   6.543  10.961  2.0004  0.9009 -0.7205
 8468SOL     OW26844   3.774   5.833  11.846  0.7075 -0.1074 -0.2678
 8468SOL    HW126845   3.732   5.908  11.803 -0.6062 -0.9829 -0.5476
 8468SOL    HW226846   3.717   5.759  11.826  2.2939 -1.3104 -0.4986
 8469SOL     OW26847   2.918   5.861   6.264  0.6635 -0.2817 -0.4953
 8469SOL    HW126848   2.988   5.860   6.199  1.6538  0.5634  0.5113
 8469SOL    HW226849   2.958   5.902   6.341 -1.1202  0.7981 -0.0944
 8470SOL     OW26850   4.037   3.730   7.112 -0.5533  0.2455  0.6415
 8470SOL    HW126851   4.131   3.738   7.123 -0.6543  0.4315  1.4341
 8470SOL    HW226852   4.025   3.656   7.052  0.1497  1.3838 -0.9668
 8471SOL     OW26853   3.434   4.815   6.962  0.3911 -0.3433 -0.6582
 8471SOL    HW126854   3.528   4.831   6.963  0.3274  0.0411 -0.5215
 8471SOL    HW226855   3.411   4.802   7.054  0.4418 -1.2666 -0.7629
 8472SOL     OW26856   6.147   2.559   7.522 -0.0635 -0.1120 -0.4375
 8472SOL    HW126857   6.147   2.591   7.432 -1.9195  1.1712 -0.0379
 8472SOL    HW226858   6.068   2.504   7.527  0.2247 -0.4636  0.3030
 8473SOL     OW26859   0.306   5.954   8.459 -0.8043  0.0972 -0.3935
 8473SOL    HW126860   0.327   6.023   8.396 -0.4245 -0.5257 -0.9616
 8473SOL    HW226861   0.341   5.987   8.542  2.4920 -0.8373 -1.2544
 8474SOL     OW26862   7.548   0.090   6.673  0.2815  0.3401 -0.0854
 8474SOL    HW126863   7.542   0.030   6.748  1.8616  0.1739 -0.0496
 8474SOL    HW226864   7.505   0.170   6.703 -0.5072 -0.2527  0.4221
 8475SOL     OW26865   2.459   3.935  11.539 -0.1230 -0.2213 -0.1070
 8475SOL    HW126866   2.502   4.018  11.559 -0.2052 -0.0500 -0.6258
 8475SOL    HW226867   2.399   3.921  11.612 -0.2627  0.2869 -0.1203
 8476SOL     OW26868   1.287   1.666   9.376 -0.4418 -0.0202 -0.1315
 8476SOL    HW126869   1.356   1.611   9.339 -0.1731  0.5178 -0.4561
 8476SOL    HW226870   1.219   1.605   9.403 -0.0949 -0.5166 -0.3581
 8477SOL     OW26871   5.508   2.437   9.253  0.4459 -0.2031 -0.0973
 8477SOL    HW126872   5.515   2.431   9.348 -1.3022  4.5152  0.6045
 8477SOL    HW226873   5.571   2.505   9.229 -1.4781  1.1067 -1.7416
 8478SOL     OW26874   3.668   5.749   2.815 -0.2153 -0.7161  0.6361
 8478SOL    HW126875   3.691   5.683   2.750  0.6890 -0.7528  0.9752
 8478SOL    HW226876   3.620   5.816   2.765  0.2913 -0.8409 -0.0289
 8479SOL     OW26877   4.600   7.137   9.454 -0.2663  0.9065 -0.0751
 8479SOL    HW126878   4.681   7.110   9.412 -0.1169 -1.9341  1.7581
 8479SOL    HW226879   4.531   7.103   9.397 -0.1711  1.7661 -0.7195
 8480SOL     OW26880   2.559   2.071   0.773 -0.3576 -0.4010 -0.5204
 8480SOL    HW126881   2.561   1.975   0.771  0.1257 -0.4893  1.5411
 8480SOL    HW226882   2.467   2.094   0.763 -0.6617 -1.1708  0.3401
 8481SOL     OW26883   6.662   6.533  11.656 -0.2254  0.4236  0.3031
 8481SOL    HW126884   6.679   6.598  11.588  1.8549  1.7373  1.9454
 8481SOL    HW226885   6.714   6.457  11.631 -1.8757 -0.3080 -1.0987
 8482SOL     OW26886   4.551   5.404   9.245  0.2954 -0.0940 -0.3032
 8482SOL    HW126887   4.633   5.404   9.295 -0.5151  0.8720  1.1092
 8482SOL    HW226888   4.543   5.494   9.213  0.0201 -0.3125 -0.8683
 8483SOL     OW26889   5.614   5.148   0.654 -0.1632 -0.0660 -0.1272
 8483SOL    HW126890   5.567   5.098   0.587  0.6904  0.0665 -0.8345
 8483SOL    HW226891   5.705   5.118   0.648 -0.1282 -0.3272  1.2390
 8484SOL     OW26892   0.844   2.985   7.691 -0.1518 -0.6734  0.1641
 8484SOL    HW126893   0.843   3.071   7.732 -0.6412  0.8958 -2.8697
 8484SOL    HW226894   0.902   2.933   7.746 -0.9575  1.1181  2.8883
 8485SOL     OW26895   3.245   1.647   3.585 -0.2701 -0.0497  0.1051
 8485SOL    HW126896   3.198   1.718   3.628 -1.0759 -0.8686  0.6219
 8485SOL    HW226897   3.176   1.586   3.558  0.4090 -0.6621 -0.2737
 8486SOL     OW26898   3.239   0.053  12.217 -0.1106 -0.0163  0.3000
 8486SOL    HW126899   3.156   0.006  12.217 -1.7361  2.5901 -1.7548
 8486SOL    HW226900   3.222   0.131  12.270  0.9775  0.6326 -0.2851
 8487SOL     OW26901   6.869   6.174   6.948 -0.0155 -0.1684  0.1619
 8487SOL    HW126902   6.951   6.220   6.967  0.4550 -0.6109 -0.7294
 8487SOL    HW226903   6.802   6.242   6.950  0.1899  0.0218  2.0249
 8488SOL     OW26904   7.731   5.126  11.072 -0.2394 -0.7560 -0.3924
 8488SOL    HW126905   7.739   5.135  10.977 -0.4261 -0.8343 -0.4141
 8488SOL    HW226906   7.755   5.213  11.105 -0.8253 -0.5322 -0.5452
 8489SOL     OW26907   4.381   3.239  10.274  0.0196  0.2235  0.2915
 8489SOL    HW126908   4.392   3.145  10.260 -1.1113  0.1604 -0.3655
 8489SOL    HW226909   4.432   3.280  10.204  1.2877  0.1348  1.1499
 8490SOL     OW26910   4.619   6.159   7.727 -0.1764 -0.0135 -0.3483
 8490SOL    HW126911   4.584   6.070   7.737 -1.5054  0.3688 -1.3329
 8490SOL    HW226912   4.565   6.212   7.785  1.9060 -0.0880  1.8192
 8491SOL     OW26913   5.833   6.065   6.597 -0.3283 -0.2786 -0.1316
 8491SOL    HW126914   5.768   6.135   6.605 -0.4892 -0.6087  2.0453
 8491SOL    HW226915   5.840   6.050   6.503 -1.7015  1.3363 -0.5511
 8492SOL     OW26916   3.032   5.864   4.400 -0.1400 -0.3684 -0.1041
 8492SOL    HW126917   2.990   5.847   4.316  0.8132  0.3172 -0.7503
 8492SOL    HW226918   3.123   5.886   4.377 -0.3380  1.7885  0.9117
 8493SOL     OW26919   3.279   6.793   4.754 -0.7220 -0.0029 -0.0074
 8493SOL    HW126920   3.287   6.734   4.828  0.7890 -0.5985 -0.5987
 8493SOL    HW226921   3.282   6.881   4.792  2.2058 -0.2432  0.5504
 8494SOL     OW26922   7.387   3.400   2.718  0.1352  0.0658  0.3852
 8494SOL    HW126923   7.415   3.445   2.639  0.0795 -0.3936  0.0994
 8494SOL    HW226924   7.394   3.466   2.787 -2.0962  1.1718 -0.3696
 8495SOL     OW26925   0.976   5.919   4.115  0.1981  0.0635 -1.0473
 8495SOL    HW126926   1.059   5.892   4.155 -1.3207 -0.9311  1.6760
 8495SOL    HW226927   0.995   5.922   4.021  3.7797  1.7377 -0.4362
 8496SOL     OW26928   1.622   7.183   5.024  0.0599 -0.5581  0.0543
 8496SOL    HW126929   1.574   7.210   5.102 -0.2403  2.1652 -0.9630
 8496SOL    HW226930   1.598   7.091   5.012  1.9455 -1.9085  4.3799
 8497SOL     OW26931   4.729   6.067   0.032 -0.4099  0.0372 -0.1675
 8497SOL    HW126932   4.670   6.142   0.034  0.1998  0.5475 -0.7714
 8497SOL    HW226933   4.681   5.997   0.077 -1.3302  0.5333 -0.3573
 8498SOL     OW26934   1.835   7.600   4.969  0.1816 -0.6048  0.1926
 8498SOL    HW126935   1.921   7.613   5.008  0.1900 -0.5413  0.1521
 8498SOL    HW226936   1.826   7.505   4.960 -0.6579 -0.7832  2.2885
 8499SOL     OW26937   7.465   4.076   1.202 -0.3260  0.1614  0.4166
 8499SOL    HW126938   7.440   4.168   1.206 -1.1950 -0.0114 -0.5524
 8499SOL    HW226939   7.411   4.040   1.131 -1.6106 -1.6021  2.2126
 8500SOL     OW26940   1.610   5.723   1.484 -0.3246 -0.4584  0.0765
 8500SOL    HW126941   1.624   5.724   1.390  1.5846 -0.3834  0.3125
 8500SOL    HW226942   1.540   5.786   1.500 -0.3166 -0.1082 -1.2360
 8501SOL     OW26943   6.458   6.624   9.608  0.0667 -0.1121  0.1907
 8501SOL    HW126944   6.432   6.611   9.516 -0.1627  2.6000 -0.2251
 8501SOL    HW226945   6.412   6.555   9.656 -0.2438 -1.2664 -1.6659
 8502SOL     OW26946   5.377   0.616  10.379 -0.4513  0.4350  0.3066
 8502SOL    HW126947   5.422   0.685  10.329  2.0793  1.2059  3.3254
 8502SOL    HW226948   5.328   0.664  10.446 -2.1435 -0.6414 -0.1041
 8503SOL     OW26949   2.774   5.104   7.274  0.1286  0.4165 -0.4319
 8503SOL    HW126950   2.732   5.036   7.221 -0.9244  2.1206 -1.8947
 8503SOL    HW226951   2.808   5.057   7.350 -1.9898 -1.5021 -0.5517
 8504SOL     OW26952   6.485   0.669   9.678 -0.1338 -0.4215 -0.1857
 8504SOL    HW126953   6.556   0.728   9.650  1.5141 -3.1003 -2.1045
 8504SOL    HW226954   6.450   0.633   9.597 -0.4292 -2.7510  0.8885
 8505SOL     OW26955   6.412   3.070   0.223  0.4352 -0.1850  0.1512
 8505SOL    HW126956   6.318   3.080   0.207  0.8359 -0.4560 -2.8798
 8505SOL    HW226957   6.428   3.122   0.302 -2.3183 -0.5824  1.0990
 8506SOL     OW26958   2.437   5.500  10.911  0.4215 -0.3075 -0.4885
 8506SOL    HW126959   2.342   5.503  10.918  0.4271 -0.6147 -0.2951
 8506SOL    HW226960   2.455   5.424  10.856  0.5793 -0.5400 -0.1156
 8507SOL     OW26961   4.203   0.913   2.379 -0.4413 -0.0306  0.1085
 8507SOL    HW126962   4.205   0.970   2.302 -1.6664  0.2571  0.2727
 8507SOL    HW226963   4.110   0.904   2.400 -0.2883 -2.1126  0.0771
 8508SOL     OW26964   2.426   0.920   4.159  0.0672 -1.1693 -0.4724
 8508SOL    HW126965   2.385   1.006   4.150  1.0922 -0.5736  0.2974
 8508SOL    HW226966   2.387   0.867   4.090  0.0864  0.1691 -1.5527
 8509SOL     OW26967   5.852   4.980   4.970  0.0041 -0.0409 -0.4074
 8509SOL    HW126968   5.762   5.007   4.954 -0.1037  0.2713  0.6082
 8509SOL    HW226969   5.868   4.910   4.907 -1.3717 -0.9526  0.1954
 8510SOL     OW26970   0.201   3.953   2.038  0.1543 -0.1812 -0.0513
 8510SOL    HW126971   0.237   4.003   2.112  0.1691  1.3183 -1.0232
 8510SOL    HW226972   0.110   3.936   2.063 -0.1039  1.0797 -0.0153
 8511SOL     OW26973   7.771   6.286  10.045  0.3898  0.0017  0.2840
 8511SOL    HW126974   7.825   6.218  10.085  0.9282  0.0289 -0.3720
 8511SOL    HW226975   7.722   6.240   9.977  1.2183  0.3628 -0.5824
 8512SOL     OW26976   2.071   1.974   1.005  0.2023 -0.5037 -0.1502
 8512SOL    HW126977   2.001   1.908   1.001  1.3005 -1.7062 -0.4779
 8512SOL    HW226978   2.036   2.049   0.958 -1.0644 -0.8846  0.1432
 8513SOL     OW26979   4.822   5.040  10.312 -0.7048 -0.0879 -0.4647
 8513SOL    HW126980   4.780   4.990  10.382  1.1022  0.0020  0.7350
 8513SOL    HW226981   4.851   4.974  10.249  1.1252 -0.5727  0.8166
 8514SOL     OW26982   7.015   0.630   9.618  0.3681  0.1241 -0.0805
 8514SOL    HW126983   6.921   0.641   9.604  0.1326  0.2824  1.4278
 8514SOL    HW226984   7.054   0.641   9.531 -1.1150 -1.4672 -0.9966
 8515SOL     OW26985   7.753   4.455   8.742  0.0856 -0.4144  0.0552
 8515SOL    HW126986   7.718   4.367   8.752 -1.3130  0.2806  1.7432
 8515SOL    HW226987   7.706   4.508   8.807  3.6831  0.7786  1.9850
 8516SOL     OW26988   2.350   5.992   0.844 -0.0055  0.1911  0.1272
 8516SOL    HW126989   2.352   5.897   0.853  0.8201  0.0587 -1.2170
 8516SOL    HW226990   2.381   6.025   0.929 -0.7180 -0.7084  0.7580
 8517SOL     OW26991   5.381   2.948  10.512 -0.1402 -0.1139  0.3338
 8517SOL    HW126992   5.471   2.922  10.493  0.2068  1.4373 -0.2913
 8517SOL    HW226993   5.383   2.974  10.604 -0.1756 -0.9027  0.5703
 8518SOL     OW26994   3.302   3.863  11.254  0.4789 -0.2544  0.1864
 8518SOL    HW126995   3.370   3.828  11.311  0.1005 -1.8027 -0.2597
 8518SOL    HW226996   3.314   3.817  11.170 -0.8231 -0.2532 -0.0308
 8519SOL     OW26997   0.428   0.766   3.542 -0.2639 -0.5740 -0.8016
 8519SOL    HW126998   0.340   0.797   3.521 -0.8791  1.0353  3.2018
 8519SOL    HW226999   0.415   0.697   3.606  1.4417 -2.6916 -2.5611
 8520SOL     OW27000   5.746   4.561  11.548  0.3853 -0.2122 -0.4899
 8520SOL    HW127001   5.818   4.504  11.520  0.9167  1.2464 -2.3352
 8520SOL    HW227002   5.668   4.508  11.539  1.1341 -1.8266  1.5109
 8521SOL     OW27003   1.520   4.358  11.647  0.0366  0.4978  0.2035
 8521SOL    HW127004   1.442   4.342  11.593  0.0582  0.5673  0.1524
 8521SOL    HW227005   1.500   4.438  11.696 -0.3663 -0.0665  0.9950
 8522SOL     OW27006   7.710   3.161   4.796  0.1231 -0.3119  0.8688
 8522SOL    HW127007   7.727   3.145   4.703 -0.0094 -0.9567  0.9458
 8522SOL    HW227008   7.696   3.255   4.803  1.3674 -0.0737  0.4311
 8523SOL     OW27009   2.475   5.952   3.385 -0.7313  0.1928  0.1400
 8523SOL    HW127010   2.552   6.007   3.395 -0.0055 -0.8659  0.5636
 8523SOL    HW227011   2.497   5.871   3.431 -1.8364 -0.3884 -0.3094
 8524SOL     OW27012   4.782   1.593   8.273  0.1434 -0.0315  0.5686
 8524SOL    HW127013   4.691   1.594   8.243 -0.3869  0.3013  2.0737
 8524SOL    HW227014   4.834   1.585   8.193 -1.2581 -2.4933 -0.2059
 8525SOL     OW27015   3.864   2.070   5.350 -0.1909 -0.0527 -0.0524
 8525SOL    HW127016   3.772   2.071   5.324  0.0567  0.7814 -0.9519
 8525SOL    HW227017   3.883   2.160   5.377  0.6046  0.0092 -0.7723
 8526SOL     OW27018   6.588   2.665   8.780  0.2875  0.2236  0.1010
 8526SOL    HW127019   6.521   2.723   8.745  0.6075  0.1765 -0.5970
 8526SOL    HW227020   6.598   2.596   8.714 -1.8175 -2.0541  1.9356
 8527SOL     OW27021   3.351   3.017  10.994 -0.5202  0.2681 -0.3970
 8527SOL    HW127022   3.370   2.989  11.084 -1.6814  0.6952  0.0095
 8527SOL    HW227023   3.317   2.938  10.951  1.7358 -0.4171 -1.0398
 8528SOL     OW27024   5.092   4.460   2.492 -0.4337  0.3674  0.0385
 8528SOL    HW127025   5.100   4.480   2.586 -0.4939 -2.9499  0.8716
 8528SOL    HW227026   4.998   4.464   2.475 -0.6775 -1.3939  0.7911
 8529SOL     OW27027   1.524   0.877   1.307  0.1962  0.3314 -0.0165
 8529SOL    HW127028   1.573   0.861   1.388 -1.2441  1.2834  1.0772
 8529SOL    HW227029   1.501   0.789   1.276  2.1760 -0.1280 -0.3456
 8530SOL     OW27030   7.500   3.328   7.664  0.2274  0.4225 -0.2185
 8530SOL    HW127031   7.546   3.403   7.702 -3.0211  1.7208  1.5776
 8530SOL    HW227032   7.523   3.254   7.721  0.5755  0.9058  0.2742
 8531SOL     OW27033   2.652   1.260  10.723 -0.3152  0.3704 -0.3778
 8531SOL    HW127034   2.638   1.333  10.784  0.4824 -0.4284  0.8140
 8531SOL    HW227035   2.670   1.185  10.780 -0.7922 -0.6956 -1.5844
 8532SOL     OW27036   2.090   5.925   8.407 -0.0593  0.2991 -0.2110
 8532SOL    HW127037   2.134   5.872   8.340  1.1082  1.2838 -0.2621
 8532SOL    HW227038   2.120   5.889   8.490  0.3368  0.5439 -0.2439
 8533SOL     OW27039   4.286   2.166  10.798 -0.1696 -0.1081 -0.3489
 8533SOL    HW127040   4.309   2.105  10.868  0.9862  0.6883 -0.0107
 8533SOL    HW227041   4.321   2.127  10.719 -1.7565 -1.1702 -0.5725
 8534SOL     OW27042   2.208   3.946  11.709 -0.1075  0.1136  0.5284
 8534SOL    HW127043   2.191   4.024  11.657 -0.4858 -1.2293 -1.4748
 8534SOL    HW227044   2.121   3.906  11.720 -0.3736  1.2764  3.8978
 8535SOL     OW27045   5.510   0.781   7.020  0.2943  0.2817  0.4269
 8535SOL    HW127046   5.545   0.698   7.053 -0.2262 -0.2204 -0.2503
 8535SOL    HW227047   5.457   0.815   7.092  0.8512  0.2383  0.8618
 8536SOL     OW27048   7.132   1.795   5.356  0.0046  0.4517  0.4614
 8536SOL    HW127049   7.156   1.738   5.429 -0.1710  0.8702  0.8531
 8536SOL    HW227050   7.109   1.878   5.397 -0.7445  0.4877 -0.0133
 8537SOL     OW27051   3.297   5.716   2.891 -0.5065 -0.6180 -0.3175
 8537SOL    HW127052   3.228   5.769   2.931 -1.9612 -3.2194  0.8950
 8537SOL    HW227053   3.362   5.704   2.961  0.1044  0.0247 -0.7679
 8538SOL     OW27054   1.405   4.354   9.808  0.2326  0.1865 -0.1003
 8538SOL    HW127055   1.442   4.288   9.867 -0.0990  1.9905  2.2690
 8538SOL    HW227056   1.326   4.314   9.773  1.0081 -1.3295 -0.1889
 8539SOL     OW27057   3.421   0.731  12.359  0.2400  0.2939 -0.2877
 8539SOL    HW127058   3.376   0.650  12.335  0.3419 -0.2615  1.2860
 8539SOL    HW227059   3.352   0.785  12.398  0.2071  0.9123 -1.1846
 8540SOL     OW27060   6.960   2.374   0.370 -0.0059  0.0035 -0.2652
 8540SOL    HW127061   6.921   2.292   0.342  2.1185 -1.0567 -0.2485
 8540SOL    HW227062   7.002   2.409   0.292  0.0738  0.5179  0.0032
 8541SOL     OW27063   6.375   0.758  11.823 -0.2568 -0.3234  0.0827
 8541SOL    HW127064   6.366   0.744  11.728 -0.0574 -2.5636  0.3419
 8541SOL    HW227065   6.437   0.691  11.851  0.9081  1.3258  1.5842
 8542SOL     OW27066   1.436   1.541   9.628 -0.2450  0.2450 -0.2868
 8542SOL    HW127067   1.386   1.610   9.583  0.3770  0.3434 -0.8434
 8542SOL    HW227068   1.471   1.488   9.557  0.6750  0.3386  0.0907
 8543SOL     OW27069   5.798   4.299   0.405 -0.3671 -0.1089  0.4766
 8543SOL    HW127070   5.708   4.274   0.382 -0.5927  0.1258  1.0724
 8543SOL    HW227071   5.852   4.263   0.335 -0.9532 -0.0271 -0.0244
 8544SOL     OW27072   7.423   0.822   1.541  0.0694  0.4023  0.1591
 8544SOL    HW127073   7.497   0.881   1.558 -0.1066  0.6465  0.0851
 8544SOL    HW227074   7.408   0.777   1.624  0.8643 -0.2929 -0.0565
 8545SOL     OW27075   4.708   0.565  10.038  0.1500  0.1652  0.2082
 8545SOL    HW127076   4.713   0.470  10.054 -3.1306 -0.1343  0.1844
 8545SOL    HW227077   4.783   0.583   9.981  1.1690 -2.3061  0.6120
 8546SOL     OW27078   6.831   5.160  11.252  0.6303 -0.2580 -0.1954
 8546SOL    HW127079   6.899   5.095  11.235  0.4845 -0.2505 -0.8319
 8546SOL    HW227080   6.863   5.210  11.327 -0.0231 -2.1673  1.4589
 8547SOL     OW27081   3.598   1.214   2.449 -0.0977  0.3861  0.5777
 8547SOL    HW127082   3.599   1.266   2.529 -3.8246  2.1206 -0.2656
 8547SOL    HW227083   3.581   1.125   2.479  2.2300  0.2901  1.8235
 8548SOL     OW27084   4.303   6.293   2.072  0.7044  0.0466 -0.5582
 8548SOL    HW127085   4.352   6.328   1.997 -0.7851  0.9909 -1.1284
 8548SOL    HW227086   4.220   6.264   2.034 -1.7359  4.0342  1.1694
 8549SOL     OW27087   3.514   0.004   1.532 -0.0906  0.4565 -0.0054
 8549SOL    HW127088   3.429   0.043   1.552  0.4715  1.3912  0.6588
 8549SOL    HW227089   3.576   0.050   1.589  1.0162  0.4957 -1.1746
 8550SOL     OW27090   0.029   4.779   0.734 -0.3801 -0.0280  0.5078
 8550SOL    HW127091  -0.020   4.698   0.750  0.9387 -1.1420 -0.8141
 8550SOL    HW227092  -0.020   4.822   0.663 -0.6479 -0.0505  0.6778
 8551SOL     OW27093   5.881   2.376   5.759 -0.8432  0.3957  0.0757
 8551SOL    HW127094   5.841   2.450   5.712  0.3060  0.6813 -0.5146
 8551SOL    HW227095   5.975   2.398   5.761 -0.5517 -0.8031  0.3424
 8552SOL     OW27096   3.843   5.309   8.828  0.0227 -0.1436 -0.5887
 8552SOL    HW127097   3.904   5.246   8.790  0.1497 -0.0695 -0.5077
 8552SOL    HW227098   3.876   5.394   8.798  1.7419  0.1626  1.8865
 8553SOL     OW27099   7.356   5.969   0.830 -0.1905 -0.9329  0.2949
 8553SOL    HW127100   7.399   6.030   0.771  1.2100 -0.7863  1.4050
 8553SOL    HW227101   7.360   5.885   0.784 -0.5552 -0.5380 -0.4829
 8554SOL     OW27102   5.298   5.419  10.373 -0.5313 -0.1427  0.1058
 8554SOL    HW127103   5.336   5.407  10.287 -0.9030  2.0155 -0.4406
 8554SOL    HW227104   5.371   5.446  10.429 -0.8080  2.0200 -0.4654
 8555SOL     OW27105   7.269   4.036   5.272  0.5867  0.3225 -0.0063
 8555SOL    HW127106   7.235   4.012   5.358  0.2058  0.9491  0.0304
 8555SOL    HW227107   7.198   4.016   5.211  1.5939 -2.0558 -0.4745
 8556SOL     OW27108   2.272   3.114   7.007 -0.3591  0.0163  0.4382
 8556SOL    HW127109   2.191   3.129   7.056 -0.9572  0.1859 -0.5962
 8556SOL    HW227110   2.317   3.046   7.058 -0.4136  0.9898  1.8653
 8557SOL     OW27111   1.256   2.669   2.529 -0.0643 -0.3664  0.0177
 8557SOL    HW127112   1.241   2.735   2.462  2.2327 -0.6711 -0.8790
 8557SOL    HW227113   1.311   2.712   2.594  2.0247 -1.4868 -0.9017
 8558SOL     OW27114   5.764   2.558   8.384 -0.3252 -0.1453 -0.1757
 8558SOL    HW127115   5.716   2.482   8.351 -0.3305 -0.3790  0.3523
 8558SOL    HW227116   5.698   2.628   8.388  0.0625  0.4037 -2.3182
 8559SOL     OW27117   6.905   5.069   1.157 -0.4538  0.6384 -0.0118
 8559SOL    HW127118   6.947   5.056   1.072 -1.8627  1.0035 -0.7998
 8559SOL    HW227119   6.817   5.102   1.136 -0.9076  0.5488  1.5792
 8560SOL     OW27120   6.147   2.597  12.093 -0.4202  0.6343 -0.4591
 8560SOL    HW127121   6.055   2.576  12.078 -0.1993  0.7295 -2.0714
 8560SOL    HW227122   6.173   2.650  12.018  0.9943  0.4766 -0.1160
 8561SOL     OW27123   5.628   3.306   4.523 -0.3785 -0.1696  0.5884
 8561SOL    HW127124   5.560   3.327   4.458  0.0556 -1.6626 -0.3955
 8561SOL    HW227125   5.586   3.323   4.607 -1.6506 -0.1180 -0.0257
 8562SOL     OW27126   0.531   0.907   1.308  0.9063  0.4456 -0.6806
 8562SOL    HW127127   0.561   0.817   1.318 -1.4105 -0.3292 -0.0653
 8562SOL    HW227128   0.601   0.960   1.346  1.2677 -1.2541  1.2201
 8563SOL     OW27129   6.963   6.654  11.639 -0.1166  0.5067 -0.4137
 8563SOL    HW127130   6.996   6.569  11.666  0.2529  0.6458 -0.4282
 8563SOL    HW227131   6.924   6.691  11.719  0.4646  0.6748 -0.2053
 8564SOL     OW27132   0.538   2.970  10.448  0.2495  1.0570  0.3223
 8564SOL    HW127133   0.580   3.021  10.517  1.9344  1.6568 -1.0766
 8564SOL    HW227134   0.605   2.908  10.419 -1.1085 -0.6459  0.6105
 8565SOL     OW27135   1.802   0.514   7.164 -0.5701 -0.7057 -0.4315
 8565SOL    HW127136   1.839   0.466   7.237 -0.5836  2.1514  1.6136
 8565SOL    HW227137   1.708   0.494   7.166 -0.3436 -1.8267 -0.6612
 8566SOL     OW27138   1.923   1.237  11.752 -0.5458  0.3279  0.2793
 8566SOL    HW127139   1.940   1.248  11.845 -0.5066  0.2975  0.2760
 8566SOL    HW227140   1.869   1.158  11.747  0.1969 -0.1857  0.2075
 8567SOL     OW27141   2.287   3.860   7.562  0.0736 -0.2077 -0.4420
 8567SOL    HW127142   2.307   3.867   7.655 -0.1729  0.1736 -0.4185
 8567SOL    HW227143   2.370   3.831   7.522 -0.4185 -2.7305  0.1781
 8568SOL     OW27144   1.722   1.254   1.911  0.1776  0.2130  0.0186
 8568SOL    HW127145   1.801   1.218   1.872  0.0913 -0.3986  0.3877
 8568SOL    HW227146   1.671   1.177   1.938 -0.6017  0.5880 -0.3332
 8569SOL     OW27147   2.789   0.470   3.744  0.0434 -0.1109 -0.1178
 8569SOL    HW127148   2.740   0.406   3.795  1.1915 -0.8006  0.1383
 8569SOL    HW227149   2.842   0.517   3.809 -1.1524  1.4892 -0.2209
 8570SOL     OW27150   4.350   2.132   9.129  0.8472 -0.0824 -0.1764
 8570SOL    HW127151   4.311   2.083   9.056  1.2865  1.3370 -1.4207
 8570SOL    HW227152   4.413   2.191   9.087  1.6718  0.2325  1.4465
 8571SOL     OW27153   3.567   0.662   8.003 -0.1085 -0.3476  0.0291
 8571SOL    HW127154   3.589   0.572   7.977 -0.0704  0.0214 -1.2958
 8571SOL    HW227155   3.638   0.715   7.968 -1.1274  0.4156 -0.9645
 8572SOL     OW27156   2.577   5.301  10.143 -0.1266  0.1356 -0.4728
 8572SOL    HW127157   2.506   5.278  10.084 -0.2680  1.9408 -1.0719
 8572SOL    HW227158   2.641   5.231  10.134  0.5932  1.0740 -4.0074
 8573SOL     OW27159   4.024   2.789   4.765  0.6188 -0.3483  0.0735
 8573SOL    HW127160   4.091   2.729   4.799  1.6424  0.1201 -1.0520
 8573SOL    HW227161   3.942   2.757   4.804  1.4185 -1.2076  1.1288
 8574SOL     OW27162   2.036   7.922   3.195 -0.3287  0.3406  0.1629
 8574SOL    HW127163   2.045   7.913   3.100 -2.8344  0.4416 -0.1420
 8574SOL    HW227164   2.016   7.834   3.226  4.0300 -0.5120  1.2202
 8575SOL     OW27165   6.034   3.639   7.426 -0.2385 -0.1322 -0.3471
 8575SOL    HW127166   5.948   3.681   7.423 -0.1158  0.0914 -0.8694
 8575SOL    HW227167   6.055   3.620   7.334  0.2293 -0.2712 -0.2163
 8576SOL     OW27168   5.237   2.449   5.392  0.1137  0.3531  0.1270
 8576SOL    HW127169   5.183   2.370   5.380 -0.4266  0.6769  0.3650
 8576SOL    HW227170   5.312   2.419   5.444  0.6095 -0.2810 -0.9347
 8577SOL     OW27171   1.000   4.217   8.268  0.1528  0.3321 -0.4977
 8577SOL    HW127172   0.911   4.191   8.292 -1.0339  0.8990 -3.7471
 8577SOL    HW227173   0.989   4.274   8.192  3.3259 -0.7007 -1.9290
 8578SOL     OW27174   0.102   4.565   1.038  0.1375  0.4193 -0.5626
 8578SOL    HW127175   0.153   4.503   0.986 -0.8230 -0.2048 -0.7806
 8578SOL    HW227176   0.147   4.568   1.123  0.5535 -0.1027 -0.7598
 8579SOL     OW27177   1.770   1.475  11.587  0.6401 -0.6073  0.1550
 8579SOL    HW127178   1.699   1.522  11.631  0.6151  0.0680 -0.5727
 8579SOL    HW227179   1.726   1.405  11.540  0.5303 -0.6052  0.2530
 8580SOL     OW27180   2.817   1.875   0.766 -0.3023  0.1119  0.2593
 8580SOL    HW127181   2.899   1.852   0.722 -0.8096 -1.0693 -0.1078
 8580SOL    HW227182   2.839   1.874   0.859  0.7736  2.5893  0.1187
 8581SOL     OW27183   2.980   1.831   7.689 -0.6797 -0.0972  0.4304
 8581SOL    HW127184   2.947   1.921   7.697  0.7858  1.0003 -3.5484
 8581SOL    HW227185   2.914   1.787   7.635 -0.4212 -0.8561  0.7257
 8582SOL     OW27186   5.169   4.320   5.954  0.5995 -0.1259  0.0995
 8582SOL    HW127187   5.156   4.227   5.976  1.3567  0.0843  1.6129
 8582SOL    HW227188   5.091   4.344   5.905 -0.4051 -1.1434  1.1293
 8583SOL     OW27189   3.030   1.353   0.105  0.2098 -0.3472  0.0320
 8583SOL    HW127190   2.969   1.367   0.177  0.2600 -2.2794  0.5036
 8583SOL    HW227191   2.978   1.369   0.026 -0.6342 -0.9480  0.4556
 8584SOL     OW27192   4.386   2.825   4.585  0.2618  0.3762  0.0174
 8584SOL    HW127193   4.415   2.769   4.513  0.2344  1.8142 -1.1640
 8584SOL    HW227194   4.465   2.872   4.612 -0.0265  0.9070 -0.0600
 8585SOL     OW27195   6.239   1.373   4.047 -0.2522 -0.4480 -0.0093
 8585SOL    HW127196   6.264   1.312   3.978  1.0116  0.2758 -0.2243
 8585SOL    HW227197   6.264   1.330   4.128 -0.1432 -0.5740 -0.1094
 8586SOL     OW27198   0.977   4.186   1.427  0.3201  0.4001 -0.2495
 8586SOL    HW127199   0.964   4.237   1.347  1.6278  0.9714 -0.1260
 8586SOL    HW227200   0.972   4.095   1.398 -0.4076  0.5973 -0.7618
 8587SOL     OW27201   0.694   5.559  12.244 -0.1444 -0.0520  0.3005
 8587SOL    HW127202   0.673   5.498  12.174 -2.2876  0.2507  0.6190
 8587SOL    HW227203   0.657   5.519  12.323 -2.7109  2.1195  0.3333
 8588SOL     OW27204   5.403   3.548   4.131  0.2247 -0.3431  0.8783
 8588SOL    HW127205   5.429   3.456   4.125 -0.1448 -0.4928  1.4727
 8588SOL    HW227206   5.486   3.596   4.130  0.4740 -0.7434  1.5698
 8589SOL     OW27207   7.383   2.096   5.226 -0.1274  0.2217 -0.2561
 8589SOL    HW127208   7.398   2.186   5.198  1.8322 -0.1299 -0.4552
 8589SOL    HW227209   7.359   2.050   5.146 -1.3056  0.5720 -0.1252
 8590SOL     OW27210   4.640   0.656   7.056 -0.4778 -0.3190  0.4368
 8590SOL    HW127211   4.571   0.713   7.091 -0.7917 -0.1997 -0.3524
 8590SOL    HW227212   4.717   0.712   7.053 -1.0163  0.3880 -1.2493
 8591SOL     OW27213   5.758   7.184   6.821 -0.3955 -0.4389  0.3081
 8591SOL    HW127214   5.707   7.263   6.801 -2.1563 -1.5071  0.3627
 8591SOL    HW227215   5.783   7.149   6.736  3.6474  2.0381  0.2085
 8592SOL     OW27216   5.188   6.026   1.898  0.0112 -0.0192  0.0373
 8592SOL    HW127217   5.266   6.050   1.948 -0.0404  0.5984 -0.1619
 8592SOL    HW227218   5.221   5.979   1.822  0.0758 -1.1588  0.7524
 8593SOL     OW27219   1.796   4.764  10.138 -0.4796  0.2481  0.2635
 8593SOL    HW127220   1.862   4.720  10.192 -0.5674  0.8940  0.8927
 8593SOL    HW227221   1.846   4.802  10.065 -0.4425 -1.1869 -0.5038
 8594SOL     OW27222   3.617   7.924   1.989  0.0427 -0.9022  0.4693
 8594SOL    HW127223   3.555   7.996   1.998  1.7501  0.8063 -0.5236
 8594SOL    HW227224   3.577   7.865   1.926 -0.6632  0.0642 -0.0137
 8595SOL     OW27225   6.560   7.457   5.280  0.1382 -0.3124 -0.1463
 8595SOL    HW127226   6.503   7.386   5.308  0.0294 -0.0490  0.2982
 8595SOL    HW227227   6.580   7.506   5.360  0.1599  0.1982 -0.4570
 8596SOL     OW27228   2.177   1.976  10.699 -0.0420  0.4795  0.3854
 8596SOL    HW127229   2.092   2.018  10.692  0.1330  0.8600  0.5283
 8596SOL    HW227230   2.218   1.989  10.614  0.1784  0.9648  0.5622
 8597SOL     OW27231   3.799   2.610   6.320  0.6391 -0.3895 -0.2351
 8597SOL    HW127232   3.879   2.593   6.371  1.3167 -0.7513 -1.3969
 8597SOL    HW227233   3.800   2.705   6.308  1.3834 -0.4816 -1.0008
 8598SOL     OW27234   4.111   7.606   6.903  0.0069 -0.2575 -0.1660
 8598SOL    HW127235   4.115   7.552   6.824 -1.4879 -0.0596 -0.3969
 8598SOL    HW227236   4.123   7.695   6.871 -0.8835 -0.1510 -0.2145
 8599SOL     OW27237   3.444   6.305   1.726  0.0948 -0.5188  0.1959
 8599SOL    HW127238   3.392   6.343   1.655  0.2737  1.3805  1.0250
 8599SOL    HW227239   3.441   6.210   1.710 -0.5984 -0.2020 -1.8122
 8600SOL     OW27240   6.085   3.469   2.922  0.1455  0.0847  0.1230
 8600SOL    HW127241   6.097   3.543   2.862  0.0853 -0.6771 -0.8521
 8600SOL    HW227242   6.146   3.403   2.891  0.4639 -0.1602  1.2182
 8601SOL     OW27243   2.404   6.733   3.096  0.2687 -0.2993  0.0925
 8601SOL    HW127244   2.332   6.788   3.127 -1.9309 -3.3639  0.8736
 8601SOL    HW227245   2.392   6.649   3.142  2.0170 -2.2391 -2.6641
 8602SOL     OW27246   6.591   2.687   5.283 -0.3652 -0.1368  0.0563
 8602SOL    HW127247   6.627   2.699   5.195  0.5487  0.0964  0.4538
 8602SOL    HW227248   6.498   2.669   5.268 -0.3017  0.2678 -0.9384
 8603SOL     OW27249   7.236   7.651   6.053  1.0081 -0.2222 -0.0346
 8603SOL    HW127250   7.214   7.660   5.960  1.1412 -3.6845 -0.5182
 8603SOL    HW227251   7.257   7.740   6.081  0.2957  1.0484 -3.1233
 8604SOL     OW27252   3.172   7.632   2.229 -0.0881  0.1796  0.0042
 8604SOL    HW127253   3.148   7.662   2.316 -0.7474 -0.2225 -0.0341
 8604SOL    HW227254   3.268   7.624   2.232  0.2586  3.0371 -0.2268
 8605SOL     OW27255   7.723   5.870   8.730 -0.0313  0.0299 -0.6099
 8605SOL    HW127256   7.726   5.964   8.744  2.0625  0.0703 -0.9852
 8605SOL    HW227257   7.701   5.833   8.815 -2.0312  0.8710 -0.7216
 8606SOL     OW27258   7.912   1.091   5.246 -0.9146  0.1740  0.4898
 8606SOL    HW127259   7.860   1.145   5.306 -0.8998 -0.2099  0.8567
 8606SOL    HW227260   7.862   1.091   5.164  0.8165  3.7625 -0.7955
 8607SOL     OW27261   4.702   3.167   6.325  0.3276  0.0133 -0.4357
 8607SOL    HW127262   4.718   3.260   6.305  1.6746 -0.5852 -2.4142
 8607SOL    HW227263   4.743   3.120   6.253 -0.8481 -2.1312  0.2215
 8608SOL     OW27264   4.208   2.341   5.186  0.1517 -0.0186  0.2721
 8608SOL    HW127265   4.164   2.424   5.172  0.6167  0.3562  0.9368
 8608SOL    HW227266   4.274   2.360   5.253  0.2823 -0.9144  0.4155
 8609SOL     OW27267   3.429   7.452  10.058  0.3786 -0.2212 -0.1456
 8609SOL    HW127268   3.479   7.525  10.021 -0.7843  0.8461  0.3132
 8609SOL    HW227269   3.388   7.409   9.983 -0.5284  0.8405 -0.2861
 8610SOL     OW27270   5.247   1.668   6.015  0.4947 -0.0550 -0.5565
 8610SOL    HW127271   5.318   1.613   5.981 -1.1405 -2.0658 -0.8781
 8610SOL    HW227272   5.213   1.621   6.091  0.5267  1.6965  0.6049
 8611SOL     OW27273   6.656   6.379   1.366 -0.8289  0.4522 -0.3766
 8611SOL    HW127274   6.628   6.317   1.434  0.0054 -0.2455 -0.6447
 8611SOL    HW227275   6.668   6.462   1.412  2.1298 -0.5503  0.8994
 8612SOL     OW27276   0.548   5.861   1.399  0.2351  0.3606  0.1077
 8612SOL    HW127277   0.616   5.806   1.438 -0.0852 -0.1306 -0.0139
 8612SOL    HW227278   0.496   5.801   1.346 -0.6018  0.6204  0.5957
 8613SOL     OW27279   5.144   5.057   5.816 -0.0893 -0.2268 -0.2854
 8613SOL    HW127280   5.140   5.134   5.872 -0.2408 -0.3932 -0.0652
 8613SOL    HW227281   5.122   4.984   5.874 -1.6550 -0.2508 -0.8366
 8614SOL     OW27282   3.396   4.409   2.863 -0.1846  0.2280  0.8199
 8614SOL    HW127283   3.383   4.504   2.868 -0.0229  0.2138  1.6120
 8614SOL    HW227284   3.469   4.392   2.923 -2.2833 -0.7992  3.2357
 8615SOL     OW27285   0.685   1.290   1.796  0.3295 -0.0294 -0.0580
 8615SOL    HW127286   0.733   1.208   1.810 -1.4166 -1.0779  0.1301
 8615SOL    HW227287   0.659   1.287   1.704  0.4545  0.4244 -0.1083
 8616SOL     OW27288   1.849   3.930   0.420 -0.2766 -0.0034  0.6198
 8616SOL    HW127289   1.849   3.907   0.512 -1.5687 -0.0159  0.6365
 8616SOL    HW227290   1.818   3.851   0.375  0.7885 -0.1532  0.1175
 8617SOL     OW27291   4.623   7.036   9.890  0.0799 -0.3375 -0.3848
 8617SOL    HW127292   4.624   7.092   9.812  1.2144  0.3470  0.0930
 8617SOL    HW227293   4.606   7.096   9.962  0.5509 -0.7252  0.0567
 8618SOL     OW27294   4.069   7.627   2.913  0.3888  0.7590 -0.5303
 8618SOL    HW127295   4.075   7.600   3.005  0.2887 -1.7628 -1.1903
 8618SOL    HW227296   3.975   7.621   2.893  0.3177  1.9861 -0.6425
 8619SOL     OW27297   5.199   7.886   8.115 -0.9277  0.3273  0.4540
 8619SOL    HW127298   5.111   7.923   8.126 -0.7741  0.8803 -0.1395
 8619SOL    HW227299   5.258   7.959   8.131 -0.4365 -0.5584  3.3100
 8620SOL     OW27300   1.345   0.375  10.731  0.2949 -0.0825  0.5571
 8620SOL    HW127301   1.366   0.317  10.804  0.8561  1.7931  1.9603
 8620SOL    HW227302   1.306   0.452  10.771  0.1626  0.8070 -1.1712
 8621SOL     OW27303   2.784   5.789   5.361  0.0274 -0.2363  0.0450
 8621SOL    HW127304   2.816   5.862   5.308  1.5066 -0.8635  0.0448
 8621SOL    HW227305   2.689   5.800   5.360  0.0374  0.2237 -2.0901
 8622SOL     OW27306   5.044   2.149   2.609  0.8872 -0.3807 -0.1518
 8622SOL    HW127307   5.140   2.146   2.616  0.9326 -0.7001 -0.9066
 8622SOL    HW227308   5.021   2.071   2.560  0.2007 -0.4959  0.3499
 8623SOL     OW27309   1.853   5.532  10.259 -0.0658 -0.4067 -0.1957
 8623SOL    HW127310   1.942   5.565  10.271 -0.0583 -0.3122 -0.4919
 8623SOL    HW227311   1.859   5.438  10.277 -0.3716 -0.0437  2.0893
 8624SOL     OW27312   6.519   6.390   6.312  0.5443  0.3473  0.4140
 8624SOL    HW127313   6.599   6.377   6.362  0.6217 -0.2997  0.1317
 8624SOL    HW227314   6.538   6.463   6.253  0.7836  0.4557  0.6230
 8625SOL     OW27315   3.173   4.355   1.439 -0.1327  0.1736 -0.1491
 8625SOL    HW127316   3.137   4.323   1.357 -1.7421  0.0204  0.5907
 8625SOL    HW227317   3.101   4.402   1.481  0.0391 -1.3846  2.0620
 8626SOL     OW27318   3.459   4.727  11.995  0.6679 -0.2057 -0.8193
 8626SOL    HW127319   3.515   4.651  11.978  0.7893 -0.2044 -0.4374
 8626SOL    HW227320   3.446   4.726  12.090  1.5388  0.8580 -0.6735
 8627SOL     OW27321   1.079   5.349   1.028 -0.6907 -0.7957  0.2271
 8627SOL    HW127322   1.109   5.310   0.945 -0.8870 -0.4062 -0.0321
 8627SOL    HW227323   0.996   5.306   1.046 -1.0315 -0.3273 -0.1901
 8628SOL     OW27324   3.553   3.876   9.665 -0.0298 -0.8208  0.1939
 8628SOL    HW127325   3.461   3.896   9.646  0.3489  2.4924  1.3094
 8628SOL    HW227326   3.601   3.915   9.592  0.7325  2.4758  2.2726
 8629SOL     OW27327   2.859   7.760   4.432 -0.3639 -0.2608  0.0536
 8629SOL    HW127328   2.789   7.709   4.391 -1.1071  1.3455 -0.7839
 8629SOL    HW227329   2.845   7.849   4.400  1.1606  0.3896  1.0920
 8630SOL     OW27330   5.501   0.879   0.864  0.8309 -0.1413 -0.1660
 8630SOL    HW127331   5.542   0.798   0.833  0.4225 -0.0054 -1.0922
 8630SOL    HW227332   5.552   0.949   0.824  0.4019  0.0414 -0.4011
 8631SOL     OW27333   1.711   1.596   1.542  0.1282 -0.0308 -0.1444
 8631SOL    HW127334   1.680   1.509   1.566  1.1310 -0.2987  0.1940
 8631SOL    HW227335   1.765   1.582   1.464  2.0777 -0.0493  1.1407
 8632SOL     OW27336   2.814   7.074   0.508  0.3206  0.0945  0.3790
 8632SOL    HW127337   2.890   7.130   0.489  0.0195  0.8918  1.4469
 8632SOL    HW227338   2.848   7.008   0.569 -0.3531  1.9631  2.9264
 8633SOL     OW27339   2.575   1.796   4.239 -0.2058 -0.3473  0.4325
 8633SOL    HW127340   2.511   1.867   4.239 -1.4520 -1.4264  0.3198
 8633SOL    HW227341   2.655   1.835   4.273 -0.8418  1.1172  0.3002
 8634SOL     OW27342   5.133   7.582   2.086  0.2260 -0.0741  0.6412
 8634SOL    HW127343   5.048   7.622   2.107  0.0647  0.9565 -1.6468
 8634SOL    HW227344   5.197   7.632   2.136 -0.2574  1.2783 -0.0521
 8635SOL     OW27345   1.867   4.625   1.149 -0.3368  0.2491  0.5971
 8635SOL    HW127346   1.878   4.679   1.071 -1.0931  0.4991  0.6555
 8635SOL    HW227347   1.956   4.608   1.179  0.1411 -1.6802 -1.5514
 8636SOL     OW27348   1.006   2.370   0.652 -0.0922  0.5198 -0.4778
 8636SOL    HW127349   0.980   2.288   0.695  1.2915  0.1613 -0.2690
 8636SOL    HW227350   0.926   2.422   0.649 -1.3574 -1.3986 -1.9316
 8637SOL     OW27351   4.962   2.727   5.052  0.7290  0.1455  0.3872
 8637SOL    HW127352   5.002   2.724   5.139  0.0626 -0.7029  0.6834
 8637SOL    HW227353   4.874   2.691   5.066  1.2740 -1.8855 -0.9707
 8638SOL     OW27354   5.502   3.111   6.046 -0.3513  0.9410  0.7176
 8638SOL    HW127355   5.596   3.125   6.056 -0.4313  0.3129  2.9708
 8638SOL    HW227356   5.475   3.176   5.982  1.6299  1.0491 -0.0707
 8639SOL     OW27357   1.710   0.424   0.975  0.3016  0.5124 -0.2979
 8639SOL    HW127358   1.692   0.338   1.013  0.0701  0.5443 -0.3289
 8639SOL    HW227359   1.783   0.409   0.916 -1.2004 -0.1750 -2.0965
 8640SOL     OW27360   2.187   4.836  11.755  0.2201 -0.3586  0.2183
 8640SOL    HW127361   2.259   4.843  11.818  0.1081 -0.3677  0.3488
 8640SOL    HW227362   2.109   4.852  11.807  0.1965  0.7073 -0.1150
 8641SOL     OW27363   0.799   5.591   6.881 -0.4471  0.4309 -0.8072
 8641SOL    HW127364   0.754   5.566   6.962  0.4006  1.0750 -0.1107
 8641SOL    HW227365   0.809   5.509   6.833 -1.5670  0.1443 -0.5809
 8642SOL     OW27366   3.106   7.398   4.764 -0.0415  0.5936 -0.6158
 8642SOL    HW127367   3.059   7.445   4.695 -0.8088 -1.3475 -1.4775
 8642SOL    HW227368   3.049   7.325   4.787  1.5432 -0.5181 -0.0453
 8643SOL     OW27369   1.968   4.639   9.883  0.2103 -0.3354  0.1731
 8643SOL    HW127370   2.055   4.636   9.845  0.1212  0.8602 -0.1733
 8643SOL    HW227371   1.951   4.733   9.897 -0.9308 -0.5595  0.4155
 8644SOL     OW27372   3.116   2.161  11.132  0.5864 -0.0722  0.0211
 8644SOL    HW127373   3.053   2.233  11.127  0.8437  0.2970  1.5000
 8644SOL    HW227374   3.093   2.103  11.059 -0.1491  1.0806 -0.6983
 8645SOL     OW27375   3.392   5.547  10.194 -0.0925  0.3912  0.2483
 8645SOL    HW127376   3.370   5.502  10.275  0.8744 -0.5415  0.0165
 8645SOL    HW227377   3.456   5.613  10.219 -0.7673  0.9883  0.4333
 8646SOL     OW27378   6.403   0.578   8.409 -0.0953 -0.0600 -0.2440
 8646SOL    HW127379   6.390   0.543   8.321 -0.6511 -0.0586 -0.1677
 8646SOL    HW227380   6.476   0.639   8.400  0.5948 -0.9062 -0.4675
 8647SOL     OW27381   4.538   4.099  10.184  0.5603  0.0177  0.0474
 8647SOL    HW127382   4.533   4.022  10.241 -0.2549  0.9079  1.2114
 8647SOL    HW227383   4.515   4.065  10.097 -0.8561 -0.8734  0.7250
 8648SOL     OW27384   2.956   3.461   6.154 -0.1218  0.5702 -0.2585
 8648SOL    HW127385   2.981   3.369   6.150 -2.0943 -0.1756  1.9898
 8648SOL    HW227386   3.037   3.508   6.135  1.0232 -1.6060 -1.1711
 8649SOL     OW27387   5.503   7.545   8.411 -0.0580  0.0432 -0.8576
 8649SOL    HW127388   5.408   7.544   8.425 -0.1150  0.3522 -1.2082
 8649SOL    HW227389   5.513   7.522   8.319  0.1578  1.0246 -1.0828
 8650SOL     OW27390   5.223   4.113   1.910  0.3154 -0.1589  0.7779
 8650SOL    HW127391   5.285   4.040   1.912  0.5301 -0.3211 -3.2278
 8650SOL    HW227392   5.272   4.185   1.870 -1.4093  0.3549 -0.5588
 8651SOL     OW27393   5.277   2.398   2.128 -0.4498 -0.2345  0.1611
 8651SOL    HW127394   5.347   2.451   2.166 -0.2544 -1.8712  2.2996
 8651SOL    HW227395   5.221   2.375   2.203 -1.7292 -1.2396 -1.0483
 8652SOL     OW27396   0.763   2.134   2.395 -0.6315 -1.0982 -0.0794
 8652SOL    HW127397   0.780   2.114   2.487  0.5380 -0.0135 -0.0379
 8652SOL    HW227398   0.811   2.067   2.347 -2.1410 -2.3396  0.0754
 8653SOL     OW27399   0.046   6.069   2.502  0.4333  0.0828  0.2153
 8653SOL    HW127400   0.048   6.072   2.597  0.0369  0.5804  0.2084
 8653SOL    HW227401  -0.014   5.998   2.481 -0.0097  0.4135  0.3396
 8654SOL     OW27402   2.641   3.942   1.204  0.4495  0.0357  0.2032
 8654SOL    HW127403   2.705   3.885   1.248 -1.0431 -0.9664  1.1995
 8654SOL    HW227404   2.637   4.020   1.259 -0.4642 -0.6680  1.1743
 8655SOL     OW27405   7.045   7.740   7.671  0.2390  0.1450 -0.5289
 8655SOL    HW127406   6.987   7.726   7.595 -2.1719  2.4005  0.7141
 8655SOL    HW227407   7.001   7.694   7.743  1.3663 -0.2023 -0.0483
 8656SOL     OW27408   2.710   1.578   4.549 -0.4323  0.2919 -0.1058
 8656SOL    HW127409   2.760   1.629   4.485 -1.7881  0.6686 -0.9134
 8656SOL    HW227410   2.723   1.487   4.521 -0.3249  0.3918 -0.3871
 8657SOL     OW27411   6.348   3.382   3.758  0.2974  0.9282  0.5733
 8657SOL    HW127412   6.273   3.361   3.703  0.5906  1.9102 -0.2285
 8657SOL    HW227413   6.423   3.383   3.698  1.1025 -0.7398  1.4725
 8658SOL     OW27414   2.318   4.763  10.465 -0.1363  0.4719  0.2978
 8658SOL    HW127415   2.231   4.757  10.426 -0.1571  2.7397 -0.0948
 8658SOL    HW227416   2.307   4.724  10.552 -1.4746  0.5292  0.1832
 8659SOL     OW27417   6.619   7.234  10.733  0.3500  0.3026  0.1093
 8659SOL    HW127418   6.667   7.200  10.657  1.8460  1.2120  0.5882
 8659SOL    HW227419   6.644   7.175  10.805 -0.3471 -0.0291  0.0786
 8660SOL     OW27420   7.286   6.790   5.581 -0.1731 -0.4578 -0.7965
 8660SOL    HW127421   7.295   6.796   5.676 -1.4257 -4.1932 -0.2743
 8660SOL    HW227422   7.375   6.799   5.548  0.4810 -0.4926  0.8717
 8661SOL     OW27423   4.468   5.524   5.773  0.1863  0.2364  0.1446
 8661SOL    HW127424   4.471   5.439   5.816 -2.9415 -0.6061 -1.0089
 8661SOL    HW227425   4.500   5.507   5.684  0.4072  0.4769  0.1768
 8662SOL     OW27426   0.784   5.115   0.631  0.0053  0.0009 -0.3475
 8662SOL    HW127427   0.800   5.026   0.600 -2.3215 -0.7877  0.5109
 8662SOL    HW227428   0.865   5.162   0.610  0.3625 -1.6208 -3.1691
 8663SOL     OW27429   3.948   6.278   5.411  0.2837 -0.6034  0.4935
 8663SOL    HW127430   3.903   6.287   5.327  2.0630  1.0231 -0.3523
 8663SOL    HW227431   4.004   6.202   5.401  0.6901 -0.2548  0.1047
 8664SOL     OW27432   4.575   1.864   3.152  0.3232 -0.1261  0.3975
 8664SOL    HW127433   4.643   1.807   3.186 -0.9103 -1.7834  0.1957
 8664SOL    HW227434   4.622   1.931   3.102  1.7785 -1.4127 -0.0305
 8665SOL     OW27435   4.163   4.348   3.585 -0.0491  0.1741 -0.2118
 8665SOL    HW127436   4.213   4.405   3.527 -0.0934  1.2823  0.7982
 8665SOL    HW227437   4.214   4.268   3.590  1.0795  0.8850 -0.0423
 8666SOL     OW27438   7.471   0.083   5.306 -0.2133  0.0091 -0.5730
 8666SOL    HW127439   7.487  -0.005   5.272  0.6611  0.1688 -0.6138
 8666SOL    HW227440   7.376   0.092   5.305 -0.2933 -0.7204 -1.1110
 8667SOL     OW27441   0.292   3.741   4.724  0.0101 -0.4791 -0.0722
 8667SOL    HW127442   0.385   3.719   4.715  0.2197 -0.7178  2.2379
 8667SOL    HW227443   0.248   3.656   4.730  0.1989 -0.4749  3.1768
 8668SOL     OW27444   0.107   4.906   7.828 -0.2640 -0.4816 -0.3819
 8668SOL    HW127445   0.146   4.830   7.870  2.4973  0.2488 -1.3915
 8668SOL    HW227446   0.105   4.973   7.897  1.4678 -0.1747 -0.5974
 8669SOL     OW27447   4.208   4.008   2.715  0.5116  0.3989  0.0686
 8669SOL    HW127448   4.229   4.015   2.622  0.2958  0.3987  0.0205
 8669SOL    HW227449   4.132   3.950   2.718  0.0198  1.0380  0.1815
 8670SOL     OW27450   3.494   1.926   8.098 -0.5182  0.3897  0.2183
 8670SOL    HW127451   3.408   1.967   8.087 -0.7422 -0.2558 -0.5119
 8670SOL    HW227452   3.551   1.998   8.125 -1.1041  0.9935 -0.1047
 8671SOL     OW27453   2.079   7.099   9.728  0.1901  0.1807 -0.5864
 8671SOL    HW127454   2.089   7.179   9.780  0.2530  1.1446 -2.0403
 8671SOL    HW227455   2.132   7.034   9.774  0.8438  1.2036  0.1444
 8672SOL     OW27456   6.520   5.176   5.640  0.1452  0.0364 -0.4024
 8672SOL    HW127457   6.594   5.152   5.697 -0.5525 -0.5189  0.2834
 8672SOL    HW227458   6.548   5.151   5.552  0.8704  0.0609 -0.1862
 8673SOL     OW27459   0.651   2.271   5.671 -0.4389  0.3878  0.4714
 8673SOL    HW127460   0.641   2.178   5.647 -0.5878  0.5226 -0.0047
 8673SOL    HW227461   0.611   2.278   5.757  2.6560 -0.7197  2.1283
 8674SOL     OW27462   4.782   1.995   5.057 -0.2959  0.8592  0.6663
 8674SOL    HW127463   4.834   1.936   5.112 -2.2203 -0.7967  0.8367
 8674SOL    HW227464   4.826   2.080   5.064  2.7557 -0.5589  0.1843
 8675SOL     OW27465   7.611   2.007   3.091  0.1007  0.0015 -0.4225
 8675SOL    HW127466   7.527   2.013   3.135  0.3916  1.4688 -0.0156
 8675SOL    HW227467   7.612   1.919   3.053 -1.0446 -0.5198  0.6872
 8676SOL     OW27468   7.606   0.914  10.939 -0.3540 -0.0188  0.3494
 8676SOL    HW127469   7.682   0.882  10.989 -0.5862 -0.2436  0.5567
 8676SOL    HW227470   7.535   0.919  11.003 -1.7748 -3.9992 -0.6234
 8677SOL     OW27471   1.755   1.021  11.816 -0.1588 -0.3394  0.9644
 8677SOL    HW127472   1.729   0.945  11.764  0.1373 -1.2891  2.1488
 8677SOL    HW227473   1.743   0.992  11.907  1.2924  0.5465  1.4558
 8678SOL     OW27474   7.754   5.659   8.295 -0.2684 -0.2410 -0.5294
 8678SOL    HW127475   7.756   5.730   8.231 -0.6583  0.1067 -0.1534
 8678SOL    HW227476   7.846   5.634   8.306  0.0348  1.2529  0.5127
 8679SOL     OW27477   2.927   7.262   1.678 -0.3241 -0.3506 -0.9402
 8679SOL    HW127478   2.929   7.274   1.773 -0.9593 -0.8554 -0.8592
 8679SOL    HW227479   2.942   7.350   1.643  2.1152 -0.4729 -0.3987
 8680SOL     OW27480   5.001   0.644   8.375  0.3398 -0.6050 -0.1354
 8680SOL    HW127481   4.993   0.552   8.402  1.0155 -0.8279 -0.6536
 8680SOL    HW227482   5.096   0.657   8.365  0.2977  0.3451  0.5711
 8681SOL     OW27483   1.069   4.910   4.644  0.3212  0.2713  0.3383
 8681SOL    HW127484   1.043   4.911   4.552  1.2015  0.6523  0.0771
 8681SOL    HW227485   1.158   4.874   4.643  0.3839  0.3916  1.0276
 8682SOL     OW27486   4.410   1.100   8.843 -0.1774  0.0381  0.1375
 8682SOL    HW127487   4.476   1.163   8.816 -1.7303  0.5524 -2.8689
 8682SOL    HW227488   4.363   1.143   8.915 -0.0301  1.5543 -0.6399
 8683SOL     OW27489   2.362   7.406   2.222  0.3902  1.0393  0.1269
 8683SOL    HW127490   2.402   7.334   2.271  0.6675  0.4010 -0.9990
 8683SOL    HW227491   2.276   7.416   2.262  0.0462 -0.4336 -0.1610
 8684SOL     OW27492   6.015   4.115  12.089  0.0424  0.6698  0.4981
 8684SOL    HW127493   5.975   4.059  12.155 -0.1434  0.9563  0.6313
 8684SOL    HW227494   5.994   4.073  12.005  2.6108 -1.2450  0.6908
 8685SOL     OW27495   6.152   2.154   4.732  0.3405 -0.5716  0.0727
 8685SOL    HW127496   6.118   2.182   4.648  1.0655  0.1533  0.0115
 8685SOL    HW227497   6.080   2.106   4.773 -0.1256 -0.6252 -0.8088
 8686SOL     OW27498   7.561   1.227  11.731  0.4146  0.1413  0.0534
 8686SOL    HW127499   7.591   1.318  11.736 -0.1496  0.3740 -0.6476
 8686SOL    HW227500   7.618   1.186  11.666  1.4301 -0.3317  1.1989
 8687SOL     OW27501   3.814   5.622   3.209  0.1022 -0.2556  0.5637
 8687SOL    HW127502   3.898   5.614   3.163  0.3190  1.3689  0.5959
 8687SOL    HW227503   3.779   5.533   3.211  0.7134 -0.5964 -1.5331
 8688SOL     OW27504   2.061   2.982   6.889 -1.0336  0.2647 -0.5299
 8688SOL    HW127505   2.140   3.019   6.929 -1.0415  0.4146 -0.6520
 8688SOL    HW227506   2.091   2.943   6.807 -1.2623  1.3104 -1.1300
 8689SOL     OW27507   2.415   2.555   2.692  0.2952  0.2113 -0.1332
 8689SOL    HW127508   2.494   2.581   2.738  1.6744 -2.5395 -0.7282
 8689SOL    HW227509   2.347   2.613   2.726  2.3409  2.0543  1.0894
 8690SOL     OW27510   4.071   4.522  11.184 -0.0500 -0.1762 -0.9797
 8690SOL    HW127511   4.069   4.507  11.279 -1.9947 -0.8863 -1.0833
 8690SOL    HW227512   4.102   4.612  11.175  2.4647 -0.8358  0.1822
 8691SOL     OW27513   1.009   3.207   2.183  0.6978  0.9319 -0.1785
 8691SOL    HW127514   1.062   3.137   2.145 -0.8083 -0.2158 -0.2243
 8691SOL    HW227515   1.050   3.225   2.267  1.7279  0.7566 -0.6250
 8692SOL     OW27516   6.748   1.148   4.093  0.4564  0.2681  0.0808
 8692SOL    HW127517   6.798   1.148   4.175 -0.8544 -1.1267  0.9236
 8692SOL    HW227518   6.794   1.086   4.037  0.9531  0.6907  0.0136
 8693SOL     OW27519   3.023   5.581   6.715 -1.0951 -0.3424  0.0250
 8693SOL    HW127520   3.086   5.635   6.762  0.4890 -0.7702 -1.4886
 8693SOL    HW227521   3.072   5.502   6.692 -2.9812 -1.9058  1.0851
 8694SOL     OW27522   0.419   7.616   5.247 -0.6301  0.3788 -0.2546
 8694SOL    HW127523   0.334   7.624   5.204 -0.2601 -0.9196 -1.2841
 8694SOL    HW227524   0.438   7.704   5.279 -1.7324  0.9903 -1.2073
 8695SOL     OW27525   6.028   1.571   0.767 -0.7157  0.0664 -0.1110
 8695SOL    HW127526   6.017   1.666   0.757  1.8688  0.8042  2.5285
 8695SOL    HW227527   6.057   1.541   0.681 -1.0721  1.7694 -0.8742
 8696SOL     OW27528   6.612   4.399   0.827  0.6118 -0.4397 -0.3798
 8696SOL    HW127529   6.690   4.417   0.774  0.5514 -1.0978 -0.7024
 8696SOL    HW227530   6.556   4.347   0.770  0.8458 -1.7667  0.5676
 8697SOL     OW27531   5.781   5.517  12.230  0.0241  0.1558 -0.5767
 8697SOL    HW127532   5.782   5.598  12.281  1.6055  1.7961 -3.0008
 8697SOL    HW227533   5.720   5.535  12.158 -0.3346 -1.1930 -0.6386
 8698SOL     OW27534   5.952   4.911  11.225 -0.4545 -0.3673 -0.6136
 8698SOL    HW127535   6.016   4.977  11.199  0.1756 -0.2134  1.2331
 8698SOL    HW227536   5.894   4.904  11.149  1.4268 -0.1549 -2.1635
 8699SOL     OW27537   6.091   0.519   2.288 -0.3382 -0.0391  0.0906
 8699SOL    HW127538   6.135   0.594   2.329  0.6576  0.0951 -1.1921
 8699SOL    HW227539   6.123   0.443   2.337 -0.7003  0.2712  0.8411
 8700SOL     OW27540   6.145   1.948   6.614 -0.3136 -0.5747  0.1356
 8700SOL    HW127541   6.188   1.955   6.700  0.5795  1.5532 -0.4130
 8700SOL    HW227542   6.059   1.989   6.628 -1.9422 -3.9328  0.9754
 8701SOL     OW27543   1.099   4.274   4.091 -0.4198  0.5870  0.0928
 8701SOL    HW127544   1.056   4.358   4.104  0.2156  0.7110  1.6483
 8701SOL    HW227545   1.187   4.286   4.128  0.4128 -0.1563 -1.5154
 8702SOL     OW27546   0.104   7.566   0.210 -0.0245 -0.2936  0.1006
 8702SOL    HW127547   0.063   7.495   0.260 -2.0024  1.3640  0.9803
 8702SOL    HW227548   0.057   7.567   0.127  2.0151 -1.8491 -1.1617
 8703SOL     OW27549   4.392   3.334   1.125  0.3118 -0.4900 -0.1125
 8703SOL    HW127550   4.469   3.320   1.070 -0.1256 -0.4795 -0.7312
 8703SOL    HW227551   4.371   3.247   1.160  1.0569 -0.3704  0.6876
 8704SOL     OW27552   2.466   6.643  11.839 -0.1699 -0.0565 -0.0759
 8704SOL    HW127553   2.381   6.609  11.812 -0.1003 -0.0211 -0.3406
 8704SOL    HW227554   2.527   6.570  11.823 -0.3479 -0.5399  1.3243
 8705SOL     OW27555   5.483   3.628   1.765  0.2505 -0.3405  0.1479
 8705SOL    HW127556   5.574   3.619   1.792  0.6192  1.1234 -0.5151
 8705SOL    HW227557   5.481   3.595   1.676 -0.3913 -2.5468  0.9082
 8706SOL     OW27558   2.039   5.213  10.224  0.1877  0.5893 -0.0446
 8706SOL    HW127559   2.082   5.280  10.171  1.2502 -0.3140 -0.3732
 8706SOL    HW227560   2.057   5.238  10.314 -1.3385  1.9484 -0.0774
 8707SOL     OW27561   6.430   5.308   5.168 -0.2130  0.4929 -0.0930
 8707SOL    HW127562   6.444   5.378   5.104 -1.2322  2.3875  1.6446
 8707SOL    HW227563   6.518   5.286   5.199  0.0858  1.3059 -0.3439
 8708SOL     OW27564   6.651   1.522   0.907 -0.2758 -0.7564  0.7620
 8708SOL    HW127565   6.662   1.604   0.860  1.1842 -0.5675  1.4033
 8708SOL    HW227566   6.557   1.504   0.901 -0.5634  0.7679  0.3202
 8709SOL     OW27567   0.414   1.529   6.033 -0.7955  0.0374 -0.0938
 8709SOL    HW127568   0.414   1.444   6.078 -2.0130 -0.9421 -1.8230
 8709SOL    HW227569   0.484   1.578   6.076 -1.1349 -1.2066  2.0839
 8710SOL     OW27570   6.182   3.417   4.301  0.3333  0.5036 -0.3175
 8710SOL    HW127571   6.260   3.459   4.265  1.0571  0.1161  0.7521
 8710SOL    HW227572   6.120   3.414   4.228  1.1194  1.3090 -1.0328
 8711SOL     OW27573   1.214   3.004   7.016  0.0621  0.3902 -0.9120
 8711SOL    HW127574   1.150   2.999   7.087  0.4922  0.7271 -0.4929
 8711SOL    HW227575   1.187   3.080   6.964  0.3200  0.7463 -0.5314
 8712SOL     OW27576   5.209   1.507   3.837 -0.5238  0.0818  0.0833
 8712SOL    HW127577   5.203   1.583   3.896  1.0369  1.6754 -1.6854
 8712SOL    HW227578   5.302   1.497   3.819 -0.9450 -0.0484 -2.4332
 8713SOL     OW27579   5.645   7.465  10.446 -0.3282 -0.0689  0.2737
 8713SOL    HW127580   5.600   7.385  10.421 -1.2096  0.1759  0.9997
 8713SOL    HW227581   5.591   7.535  10.409 -1.2522  0.2682  2.1362
 8714SOL     OW27582   7.639   0.127   1.016 -0.2076  0.1466 -0.0896
 8714SOL    HW127583   7.588   0.063   1.064  0.5694  1.0169  2.0120
 8714SOL    HW227584   7.599   0.211   1.038 -1.1796  0.4654 -2.7465
 8715SOL     OW27585   4.467   6.952   0.080  0.3467 -0.3988 -0.1647
 8715SOL    HW127586   4.409   6.999   0.020  0.7684 -0.7662 -0.8751
 8715SOL    HW227587   4.420   6.951   0.163 -0.7049 -0.7746 -0.7515
 8716SOL     OW27588   3.960   0.789  11.173 -0.1783  0.0506  0.2590
 8716SOL    HW127589   4.055   0.788  11.173 -0.1480 -1.0177 -1.2733
 8716SOL    HW227590   3.935   0.725  11.106 -1.9708  0.3157  0.6111
 8717SOL     OW27591   2.122   6.364   1.333  0.4966  0.2955 -0.1105
 8717SOL    HW127592   2.146   6.408   1.252 -2.6107  2.5360 -0.0021
 8717SOL    HW227593   2.172   6.408   1.401  2.0182 -0.6094 -0.6014
 8718SOL     OW27594   0.278   0.430   8.764 -0.4506  0.7882  0.3219
 8718SOL    HW127595   0.241   0.517   8.756 -0.2811  0.8056 -0.3318
 8718SOL    HW227596   0.344   0.438   8.833  0.4072  1.4738 -0.5545
 8719SOL     OW27597   3.165   5.950   1.943 -0.2776  0.0756  0.4902
 8719SOL    HW127598   3.227   5.983   2.008 -2.1848  0.4537  2.2167
 8719SOL    HW227599   3.173   5.854   1.949 -1.1525  0.0600  2.1159
 8720SOL     OW27600   1.739   1.507  10.359 -0.6531 -0.0540 -0.2510
 8720SOL    HW127601   1.834   1.521  10.362 -0.5000 -0.1238 -2.6271
 8720SOL    HW227602   1.711   1.513  10.450  1.7974 -1.2433  0.6765
 8721SOL     OW27603   4.718   1.809   5.775  0.1588 -0.3704 -0.0774
 8721SOL    HW127604   4.700   1.722   5.741  0.7183 -0.6676  0.3752
 8721SOL    HW227605   4.632   1.853   5.776 -0.5864 -1.7187  1.9469
 8722SOL     OW27606   2.647   3.748   2.037  0.1770 -0.9702  0.6520
 8722SOL    HW127607   2.674   3.658   2.020  0.3228 -0.9461  0.7627
 8722SOL    HW227608   2.561   3.755   1.993  1.4938 -0.2570 -2.0313
 8723SOL     OW27609   4.140   1.457   0.420 -0.4251 -0.1478  0.5243
 8723SOL    HW127610   4.164   1.549   0.428 -0.0092 -0.1894 -0.1768
 8723SOL    HW227611   4.137   1.425   0.510 -0.3323  0.4894  0.7559
 8724SOL     OW27612   6.651   4.896   3.466 -0.0438  0.7442  0.3227
 8724SOL    HW127613   6.560   4.901   3.435 -0.4534  1.9008  1.6566
 8724SOL    HW227614   6.702   4.885   3.386 -1.3924 -0.6216 -0.4061
 8725SOL     OW27615   4.698   1.835   6.043  0.1596  0.4022  0.1804
 8725SOL    HW127616   4.749   1.911   6.070 -0.9907  1.6178 -0.9327
 8725SOL    HW227617   4.707   1.833   5.947  1.4275 -1.8149  0.2687
 8726SOL     OW27618   1.327   1.526   1.535  0.6454  0.4505 -0.2894
 8726SOL    HW127619   1.390   1.590   1.501  0.1536  1.6815  0.9713
 8726SOL    HW227620   1.257   1.580   1.572 -0.5767 -0.8707 -0.6096
 8727SOL     OW27621   2.606   7.638  10.559 -0.0137  0.1518 -0.1969
 8727SOL    HW127622   2.627   7.641  10.652 -0.0812  2.1842 -0.2108
 8727SOL    HW227623   2.584   7.728  10.536 -0.5548 -0.4106 -2.0626
 8728SOL     OW27624   4.080   2.763  11.293  0.2059 -0.3197  0.3245
 8728SOL    HW127625   4.141   2.709  11.242  1.5941  0.0547  1.4995
 8728SOL    HW227626   4.060   2.710  11.371  1.3197  0.6556  1.3278
 8729SOL     OW27627   1.633   2.360   2.588  0.6109  0.1614 -0.0820
 8729SOL    HW127628   1.664   2.343   2.676 -0.3860 -1.3568  0.0123
 8729SOL    HW227629   1.711   2.358   2.533  0.9153 -1.9445  0.3627
 8730SOL     OW27630   3.951   5.845   6.847 -0.6807 -0.4412 -0.3809
 8730SOL    HW127631   4.010   5.883   6.912  0.3558 -1.4566 -0.7012
 8730SOL    HW227632   3.949   5.752   6.868  1.2054 -1.1556 -2.8817
 8731SOL     OW27633   2.743   7.749  11.194  0.0271  1.0082 -0.3738
 8731SOL    HW127634   2.823   7.766  11.144 -0.0477  0.7018 -0.5952
 8731SOL    HW227635   2.724   7.657  11.179 -0.0530  0.9372  0.1334
 8732SOL     OW27636   3.775   1.246  11.538  0.0224  0.1172 -0.1585
 8732SOL    HW127637   3.745   1.303  11.609 -0.5119  2.5135 -2.1491
 8732SOL    HW227638   3.862   1.279  11.516  0.3364 -0.8417 -0.3868
 8733SOL     OW27639   3.714   3.672   4.994  0.0703  0.1963  0.1115
 8733SOL    HW127640   3.792   3.633   5.034  1.7305  0.1551 -2.8817
 8733SOL    HW227641   3.738   3.763   4.979 -0.7691  0.3806 -0.1627
 8734SOL     OW27642   2.243   3.691  11.054  0.1022  0.4611  0.1891
 8734SOL    HW127643   2.300   3.731  10.989 -0.5343  1.8428  0.4247
 8734SOL    HW227644   2.288   3.611  11.081  2.4212  1.9649  1.0749
 8735SOL     OW27645   1.935   4.104  10.129 -0.3850  0.4426 -0.3470
 8735SOL    HW127646   1.998   4.086  10.199 -2.5240 -1.4677  1.2746
 8735SOL    HW227647   1.985   4.149  10.062  2.3237  0.3441  1.4579
 8736SOL     OW27648   7.604   2.902   1.039 -0.1993 -0.0593  0.1207
 8736SOL    HW127649   7.545   2.839   0.997  0.3733  0.0657 -0.9060
 8736SOL    HW227650   7.668   2.849   1.085 -0.1484 -0.2142 -0.1296
 8737SOL     OW27651   4.529   6.375  11.099  0.0482 -1.0854 -0.0851
 8737SOL    HW127652   4.553   6.293  11.056  1.5070 -0.5174 -0.3961
 8737SOL    HW227653   4.612   6.411  11.131 -0.4234  0.6921 -0.7200
 8738SOL     OW27654   3.404   7.776   3.041 -0.2917  0.1035  0.2334
 8738SOL    HW127655   3.317   7.745   3.014 -0.4401 -0.7185  1.5427
 8738SOL    HW227656   3.415   7.859   2.995 -1.1945 -0.4253 -1.0107
 8739SOL     OW27657   2.382   1.566   0.236  0.4898 -0.4849 -0.2728
 8739SOL    HW127658   2.312   1.505   0.210  0.1949 -0.0248 -0.5722
 8739SOL    HW227659   2.463   1.515   0.226  0.0872 -1.6183  1.8537
 8740SOL     OW27660   6.965   6.264  10.535  0.4517  1.0012 -0.4588
 8740SOL    HW127661   6.954   6.187  10.479  0.2087  1.1532 -0.6214
 8740SOL    HW227662   6.973   6.228  10.623  0.9473  0.7547 -0.6009
 8741SOL     OW27663   6.858   6.514   1.874 -0.1374  0.2447 -0.0622
 8741SOL    HW127664   6.871   6.495   1.781  0.3501 -2.0634  0.4182
 8741SOL    HW227665   6.829   6.431   1.912 -1.7103  1.4892  1.6349
 8742SOL     OW27666   7.585   5.070   7.986 -0.0732 -0.1611 -0.2656
 8742SOL    HW127667   7.629   5.075   7.901  1.0314  3.0121  0.3444
 8742SOL    HW227668   7.516   5.137   7.981  1.3454  1.5957  1.9296
 8743SOL     OW27669   0.315   2.626   6.967  0.3563  0.2598 -0.5675
 8743SOL    HW127670   0.406   2.607   6.990 -0.3980 -0.6818  2.0051
 8743SOL    HW227671   0.281   2.543   6.933 -0.3806 -0.3962  1.6370
 8744SOL     OW27672   2.784   1.042   4.014  0.1510 -0.4466 -0.2088
 8744SOL    HW127673   2.860   1.074   3.965  1.6741 -1.3575  1.4312
 8744SOL    HW227674   2.740   0.983   3.954 -0.3811  1.4912 -1.8501
 8745SOL     OW27675   2.158   3.155   3.191  0.4325 -0.3008 -0.1852
 8745SOL    HW127676   2.204   3.142   3.274  0.8505  0.0165 -0.3650
 8745SOL    HW227677   2.223   3.137   3.124 -0.2927 -2.0041 -0.4840
 8746SOL     OW27678   6.621   2.242   4.325  0.6301 -0.6392 -0.3588
 8746SOL    HW127679   6.665   2.322   4.296 -0.8160 -1.0121 -4.0584
 8746SOL    HW227680   6.583   2.266   4.410  0.6256  2.4807 -1.1180
 8747SOL     OW27681   6.612   0.593   7.478 -1.3202 -0.4484 -0.2258
 8747SOL    HW127682   6.608   0.682   7.514  1.3745 -0.3967  0.1721
 8747SOL    HW227683   6.601   0.605   7.384 -0.3139  0.4273 -0.2574
 8748SOL     OW27684   3.967   3.070   6.347  0.4890 -0.2724 -0.5544
 8748SOL    HW127685   3.968   3.090   6.253 -1.7323 -0.5703 -0.6937
 8748SOL    HW227686   4.002   3.149   6.388  1.8120 -0.2627 -1.6174
 8749SOL     OW27687   6.516   3.453   2.409 -0.0551 -0.2348  0.2614
 8749SOL    HW127688   6.491   3.368   2.372  2.1302 -0.7241 -0.1962
 8749SOL    HW227689   6.568   3.495   2.340  1.7922 -0.0031  1.7303
 8750SOL     OW27690   1.069   7.644   2.648  0.4508  0.0561 -0.3827
 8750SOL    HW127691   1.027   7.666   2.732  2.0867 -0.3091  0.5798
 8750SOL    HW227692   1.064   7.724   2.597 -0.9669  0.1577 -0.1308
 8751SOL     OW27693   5.848   4.399   8.974 -0.4630 -0.0250  0.4748
 8751SOL    HW127694   5.793   4.378   8.899 -1.3175 -1.0516  1.3617
 8751SOL    HW227695   5.845   4.495   8.978  1.7263  0.2854 -2.3128
 8752SOL     OW27696   6.849   6.797  10.424  0.3902  0.1361  0.0283
 8752SOL    HW127697   6.838   6.754  10.339  0.8091  1.0849 -0.5191
 8752SOL    HW227698   6.878   6.885  10.402  0.9581  0.2459  1.1763
 8753SOL     OW27699   0.189   3.458  11.188 -0.3099 -0.4055  0.5607
 8753SOL    HW127700   0.274   3.421  11.212  0.1917  0.6071  0.3805
 8753SOL    HW227701   0.160   3.406  11.113  0.8222  0.1608 -0.2902
 8754SOL     OW27702   5.168   6.944  10.279 -0.1513 -0.3166 -0.2492
 8754SOL    HW127703   5.212   7.013  10.229  0.6297 -0.7380 -0.1571
 8754SOL    HW227704   5.191   6.961  10.370  0.0000 -0.6616 -0.2203
 8755SOL     OW27705   4.312   5.630   2.972  0.0612 -0.0684 -0.0871
 8755SOL    HW127706   4.387   5.637   2.913 -0.3218  0.1982 -0.5432
 8755SOL    HW227707   4.332   5.692   3.042  0.7637 -0.7619  0.3562
 8756SOL     OW27708   2.536   4.051   6.760 -0.7016 -0.0431 -0.0798
 8756SOL    HW127709   2.449   4.050   6.722 -0.6519  0.6570 -0.2279
 8756SOL    HW227710   2.531   4.115   6.831  0.5481  2.6765 -2.2482
 8757SOL     OW27711   4.302   7.031   2.161  0.1758  0.1796  0.3279
 8757SOL    HW127712   4.309   6.936   2.174 -1.5160 -0.1784 -1.0505
 8757SOL    HW227713   4.298   7.042   2.066 -0.8376  1.5292  0.5054
 8758SOL     OW27714   0.530   5.273   9.147  0.4130 -0.0607 -0.3122
 8758SOL    HW127715   0.553   5.257   9.238  1.7544 -0.6389 -0.7242
 8758SOL    HW227716   0.558   5.363   9.130 -0.4213  0.2690  0.0041
 8759SOL     OW27717   7.380   1.729   4.436  0.1023  0.2069 -0.0064
 8759SOL    HW127718   7.419   1.777   4.364 -0.9461  4.0900  1.7296
 8759SOL    HW227719   7.345   1.649   4.397  2.1166  0.7149 -3.1319
 8760SOL     OW27720   1.666   7.783   0.649  0.2775  0.7486 -0.7401
 8760SOL    HW127721   1.612   7.704   0.650 -1.8064  2.0959  0.6027
 8760SOL    HW227722   1.685   7.797   0.556 -0.3852 -0.5968 -1.1112
 8761SOL     OW27723   5.349   6.818   3.781  0.2794 -0.3120 -0.0306
 8761SOL    HW127724   5.362   6.899   3.733 -1.6798 -0.0532 -0.2288
 8761SOL    HW227725   5.324   6.845   3.869 -1.0070 -0.6398 -0.2674
 8762SOL     OW27726   6.179   7.351  10.843 -0.2644  0.1205 -0.0742
 8762SOL    HW127727   6.229   7.277  10.878 -1.9365 -1.8327 -1.4970
 8762SOL    HW227728   6.087   7.324  10.853 -0.9357  1.9441 -0.8136
 8763SOL     OW27729   0.109   1.996   5.416 -0.6558  0.9554 -0.5076
 8763SOL    HW127730   0.085   1.907   5.441  1.1545  0.7984  0.8307
 8763SOL    HW227731   0.146   1.988   5.328  0.6523  0.1816  0.1044
 8764SOL     OW27732   3.079   0.982   9.474 -0.5410  0.3297 -0.1983
 8764SOL    HW127733   3.127   0.969   9.556  0.1150 -0.0675 -0.6346
 8764SOL    HW227734   3.098   1.073   9.450  0.6878 -0.0606 -0.7850
 8765SOL     OW27735   1.370   5.238   4.809 -0.0179  0.2057  0.3591
 8765SOL    HW127736   1.394   5.184   4.884  0.4821  0.3327  0.2944
 8765SOL    HW227737   1.276   5.223   4.797 -0.3423  0.9984  1.6673
 8766SOL     OW27738   1.398   1.877   0.722 -0.3690 -0.1915 -0.0616
 8766SOL    HW127739   1.387   1.811   0.790 -2.4442 -1.0333 -1.1201
 8766SOL    HW227740   1.327   1.940   0.739 -0.1721  0.2196 -0.7338
 8767SOL     OW27741   4.265   1.800   9.226  0.1144  0.0307  0.4269
 8767SOL    HW127742   4.359   1.820   9.224 -0.1703  1.4262 -0.0749
 8767SOL    HW227743   4.227   1.857   9.159 -1.0441 -0.7885  0.3652
 8768SOL     OW27744   7.408   7.423   2.961  0.1326 -0.5066 -0.2188
 8768SOL    HW127745   7.340   7.418   3.028  0.1931 -0.5008 -0.1575
 8768SOL    HW227746   7.459   7.343   2.972  0.4025 -0.3020  0.0197
 8769SOL     OW27747   0.822   7.780   9.408 -0.1685  0.0495 -0.2291
 8769SOL    HW127748   0.749   7.722   9.389 -0.6911  0.4380  0.5043
 8769SOL    HW227749   0.781   7.858   9.446  0.6282  0.2269  0.2993
 8770SOL     OW27750   0.358   1.356   0.943  0.1891 -0.3474 -0.3285
 8770SOL    HW127751   0.327   1.272   0.909  0.3702 -0.1459 -1.0131
 8770SOL    HW227752   0.287   1.386   1.000  0.2186 -1.0591  0.0980
 8771SOL     OW27753   2.305   0.785  11.684  0.0219 -0.1122 -0.2856
 8771SOL    HW127754   2.278   0.790  11.592 -0.4949  0.5136 -0.1134
 8771SOL    HW227755   2.247   0.847  11.728 -1.5396 -2.2642  0.8907
 8772SOL     OW27756   4.050   5.037   0.418  0.6845  0.7033  0.3752
 8772SOL    HW127757   4.069   5.108   0.357  1.5855 -0.4931 -0.7897
 8772SOL    HW227758   3.954   5.030   0.417  0.6996  0.3721 -1.3239
 8773SOL     OW27759   4.542   2.801  10.977 -0.0595 -0.4858  0.5445
 8773SOL    HW127760   4.593   2.726  11.008  1.9154  0.5762 -0.0071
 8773SOL    HW227761   4.606   2.870  10.963 -1.4080  0.3933 -1.8528
 8774SOL     OW27762   5.735   6.540   0.115  0.4835  0.0661  0.4529
 8774SOL    HW127763   5.799   6.484   0.071  0.8409  1.6892 -1.1951
 8774SOL    HW227764   5.701   6.598   0.047 -1.1491  0.7360  1.7342
 8775SOL     OW27765   4.958   0.603   1.095 -0.0904 -0.5396 -0.1453
 8775SOL    HW127766   5.032   0.606   1.034  0.0928 -0.7575  0.0679
 8775SOL    HW227767   4.959   0.688   1.138 -0.4938 -0.2136 -0.7716
 8776SOL     OW27768   7.332   3.719   1.295 -0.0617 -0.3926  0.2714
 8776SOL    HW127769   7.384   3.767   1.359  0.4322  0.0041 -0.4049
 8776SOL    HW227770   7.242   3.748   1.309 -0.3924 -2.2469  2.5045
 8777SOL     OW27771   3.195   6.465   2.872 -0.4084  0.0002  0.2937
 8777SOL    HW127772   3.180   6.500   2.959  0.4710  0.7218  0.1793
 8777SOL    HW227773   3.285   6.491   2.851 -0.3959 -0.6813 -0.5846
 8778SOL     OW27774   2.141   5.173   3.271 -0.9476 -0.0702  0.1298
 8778SOL    HW127775   2.057   5.161   3.227  0.3345  1.3078 -3.0133
 8778SOL    HW227776   2.206   5.160   3.202  1.2316  2.9545  1.3849
 8779SOL     OW27777   5.630   7.870   0.888 -0.0148  0.7380  0.4107
 8779SOL    HW127778   5.681   7.808   0.940 -1.4049  0.0118  0.9436
 8779SOL    HW227779   5.591   7.817   0.819 -1.2863  0.9748  0.9169
 8780SOL     OW27780   1.199   0.365   3.028  0.0811  0.2410 -0.5183
 8780SOL    HW127781   1.239   0.289   2.987  0.0094  0.2867 -0.6731
 8780SOL    HW227782   1.237   0.440   2.984  0.9786  0.3377  0.3783
 8781SOL     OW27783   5.733   7.071   6.571 -0.3017 -0.5393  0.3290
 8781SOL    HW127784   5.802   7.069   6.504 -1.1001  0.2035 -0.5318
 8781SOL    HW227785   5.663   7.123   6.532 -0.4216  0.7104  2.1016
 8782SOL     OW27786   5.811   4.062  10.021  0.3024 -0.3582  0.1042
 8782SOL    HW127787   5.803   4.032   9.930  1.5749  0.7016 -0.3967
 8782SOL    HW227788   5.721   4.075  10.050 -0.1179 -0.1204 -1.2229
 8783SOL     OW27789   6.491   5.376   0.741  0.3854 -0.1444  0.0675
 8783SOL    HW127790   6.482   5.368   0.646  0.3044  0.1787  0.0485
 8783SOL    HW227791   6.413   5.332   0.776 -1.3068  2.4725 -0.0889
 8784SOL     OW27792   2.694   5.654   0.921  0.2455 -0.4434 -0.5926
 8784SOL    HW127793   2.776   5.656   0.971 -0.2652  0.4136  0.2441
 8784SOL    HW227794   2.696   5.569   0.877  1.5505 -0.4642 -0.5451
 8785SOL     OW27795   0.293   3.573   0.834  0.2078 -0.3370 -0.1808
 8785SOL    HW127796   0.245   3.634   0.890 -0.0073 -1.2440  0.6374
 8785SOL    HW227797   0.346   3.629   0.778 -1.3590  0.6812 -0.7138
 8786SOL     OW27798   4.878   7.263   5.584  0.8080 -0.2024  0.0152
 8786SOL    HW127799   4.850   7.245   5.674 -0.6496 -0.6379 -0.5032
 8786SOL    HW227800   4.800   7.298   5.541  1.9655  1.7599 -0.6292
 8787SOL     OW27801   3.534   7.873  10.138  0.3455 -0.2254  0.1874
 8787SOL    HW127802   3.480   7.821  10.197  0.7249 -0.7912  0.0489
 8787SOL    HW227803   3.618   7.880  10.182 -0.4208  2.5027  1.4232
 8788SOL     OW27804   6.642   3.450  10.530 -0.0505 -0.2469  0.3759
 8788SOL    HW127805   6.594   3.484  10.605  0.1261 -0.3417  0.5348
 8788SOL    HW227806   6.625   3.356  10.531  0.9795 -0.4431  1.0630
 8789SOL     OW27807   7.795   3.017  11.871  0.5318  0.5355  0.2982
 8789SOL    HW127808   7.816   2.936  11.825  2.2721  0.0057  1.8686
 8789SOL    HW227809   7.881   3.055  11.891 -0.2331  3.4336 -1.4251
 8790SOL     OW27810   2.628   1.411  10.053 -0.0387  0.3338 -0.0854
 8790SOL    HW127811   2.677   1.333  10.026 -0.8474  0.4289 -1.9690
 8790SOL    HW227812   2.543   1.402  10.010 -0.9571  1.1768  1.4677
 8791SOL     OW27813   4.528   0.783   9.956 -0.2704  0.2156 -0.0831
 8791SOL    HW127814   4.595   0.731  10.000 -0.0351  0.6807  0.1172
 8791SOL    HW227815   4.490   0.723   9.891  0.5734  0.0389 -0.4336
 8792SOL     OW27816   3.595   5.847   1.168  0.1820  0.4184  0.1570
 8792SOL    HW127817   3.662   5.786   1.201  0.1639  1.3631  2.0970
 8792SOL    HW227818   3.646   5.918   1.128  0.6460  2.3448  3.7090
 8793SOL     OW27819   7.360   5.115   1.360 -0.1629  0.8489  0.1708
 8793SOL    HW127820   7.448   5.077   1.368 -0.9496 -0.8917  0.9060
 8793SOL    HW227821   7.365   5.168   1.280  1.5141  0.7051  0.1308
 8794SOL     OW27822   4.536   0.622  10.829  0.1357 -0.5326  0.1597
 8794SOL    HW127823   4.574   0.709  10.819 -0.4687 -0.3414 -0.6079
 8794SOL    HW227824   4.590   0.565  10.774 -0.7749 -0.2170 -1.1250
 8795SOL     OW27825   6.419   7.121   6.087  0.3419 -0.7438 -0.0807
 8795SOL    HW127826   6.509   7.140   6.062 -0.2067 -1.2831 -2.8278
 8795SOL    HW227827   6.366   7.178   6.031 -1.0453 -1.2199  0.6973
 8796SOL     OW27828   0.078   5.301   4.338  0.6000 -0.0028  0.1320
 8796SOL    HW127829   0.103   5.293   4.430 -0.1430 -1.9631  0.2189
 8796SOL    HW227830   0.080   5.211   4.305  2.8268  0.8321 -2.3454
 8797SOL     OW27831   7.180   6.075   6.251 -0.2090  0.2510  0.6364
 8797SOL    HW127832   7.192   5.985   6.219  3.0900  0.2107  1.5817
 8797SOL    HW227833   7.185   6.129   6.172  0.1948 -0.2684  0.2959
 8798SOL     OW27834   5.955   5.864   2.322  0.6567  0.3821 -0.1663
 8798SOL    HW127835   5.984   5.924   2.391  1.0711  1.9782 -1.6424
 8798SOL    HW227836   5.928   5.922   2.250 -1.5440 -1.1581 -0.6950
 8799SOL     OW27837   4.574   0.175   6.409  0.5531 -0.2890  0.1605
 8799SOL    HW127838   4.485   0.158   6.378  0.1884 -0.4872  1.2710
 8799SOL    HW227839   4.576   0.139   6.498  1.2742  1.0246  0.7139
 8800SOL     OW27840   7.056   6.875   7.876  0.1360  0.2997 -0.1394
 8800SOL    HW127841   7.040   6.839   7.964  0.5815 -0.0421 -0.1962
 8800SOL    HW227842   6.980   6.847   7.825 -0.2748  0.7539  0.2084
 8801SOL     OW27843   5.371   0.761   4.655  1.0591  0.3469 -0.1067
 8801SOL    HW127844   5.378   0.759   4.750  2.1346 -1.2785 -0.2027
 8801SOL    HW227845   5.358   0.670   4.629  0.3351  0.8092 -1.5085
 8802SOL     OW27846   1.377   1.463  10.350 -0.2011 -1.0194 -0.5382
 8802SOL    HW127847   1.342   1.499  10.431  0.7910  0.4259 -0.7106
 8802SOL    HW227848   1.469   1.489  10.350  0.1350 -2.1154 -1.5216
 8803SOL     OW27849   0.557   6.505  12.327  0.2660 -0.3650 -0.2135
 8803SOL    HW127850   0.468   6.484  12.353 -0.3508 -0.6976 -2.4557
 8803SOL    HW227851   0.549   6.550  12.243  2.2307 -0.8715 -0.7435
 8804SOL     OW27852   1.243   6.645   3.113  0.4509 -0.2286  0.5507
 8804SOL    HW127853   1.296   6.725   3.113  1.0075 -0.5717  1.7791
 8804SOL    HW227854   1.158   6.672   3.147 -0.3394  0.3892 -1.7177
 8805SOL     OW27855   5.802   3.353  11.729 -0.1611 -0.2314 -0.1721
 8805SOL    HW127856   5.785   3.272  11.777 -2.2812 -0.2924 -0.9325
 8805SOL    HW227857   5.806   3.325  11.637 -0.9890  0.5045 -0.4487
 8806SOL     OW27858   5.223   7.043   8.645 -0.2092 -0.8209 -0.4469
 8806SOL    HW127859   5.183   7.009   8.565 -0.4615  1.1451 -1.2088
 8806SOL    HW227860   5.219   6.969   8.707 -0.1771 -2.3295 -2.1544
 8807SOL     OW27861   5.275   1.072   2.339  0.5333  0.3000  0.1895
 8807SOL    HW127862   5.361   1.032   2.353  0.6656  0.2126 -0.7979
 8807SOL    HW227863   5.290   1.165   2.350  0.8482  0.3196 -0.3440
 8808SOL     OW27864   1.478   4.612   4.514 -0.3937  0.3778 -0.0135
 8808SOL    HW127865   1.526   4.694   4.513 -1.6715  1.2593  2.1503
 8808SOL    HW227866   1.528   4.556   4.574  0.0149 -0.1353 -0.8201
 8809SOL     OW27867   3.963   1.914   9.795 -0.2022 -0.5581 -0.1006
 8809SOL    HW127868   3.947   1.827   9.758 -0.4829  0.5546 -2.7653
 8809SOL    HW227869   4.043   1.944   9.753 -1.2178  1.2856 -0.8193
 8810SOL     OW27870   5.122   3.046   9.709 -0.0092 -0.2206  0.4544
 8810SOL    HW127871   5.034   3.053   9.671  0.8205 -1.3041 -1.8577
 8810SOL    HW227872   5.178   3.092   9.647  1.0232  1.1794  2.3173
 8811SOL     OW27873   1.286   3.568   2.178  0.1711  0.4314  0.0241
 8811SOL    HW127874   1.327   3.605   2.100  0.2978  2.1953  0.8789
 8811SOL    HW227875   1.192   3.584   2.165  0.2401  1.2865  0.4739
 8812SOL     OW27876   5.964   5.475   8.659  0.4957 -0.0695 -0.1488
 8812SOL    HW127877   6.017   5.460   8.581  0.7637  1.0124 -0.1971
 8812SOL    HW227878   5.947   5.388   8.694  3.2152 -0.4707  0.4589
 8813SOL     OW27879   6.183   3.060   6.079 -0.2014  0.4113  0.1807
 8813SOL    HW127880   6.220   3.039   6.164 -0.7703  2.2981  0.9572
 8813SOL    HW227881   6.094   3.090   6.098  0.0922  2.1317 -0.8648
 8814SOL     OW27882   5.718   4.315   1.887 -0.1746  0.4662  0.8549
 8814SOL    HW127883   5.622   4.317   1.888 -0.2327 -0.1629 -0.5500
 8814SOL    HW227884   5.740   4.290   1.797  1.3548  2.3401  0.6536
 8815SOL     OW27885   3.717   5.274   2.358  0.0828  0.2570 -0.2076
 8815SOL    HW127886   3.724   5.368   2.372  0.9644  0.1683  0.0516
 8815SOL    HW227887   3.648   5.264   2.292 -0.4382  1.0350  0.2040
 8816SOL     OW27888   7.760   7.828   7.149  0.0324  0.0360  0.0205
 8816SOL    HW127889   7.722   7.801   7.232  0.3006 -0.7855 -0.1225
 8816SOL    HW227890   7.721   7.769   7.084  0.4920  0.0976 -0.3150
 8817SOL     OW27891   3.738   4.587   5.979  0.0214 -0.1826  0.2742
 8817SOL    HW127892   3.813   4.647   5.974 -0.0980  0.4006  3.4719
 8817SOL    HW227893   3.663   4.645   5.994 -0.6869 -0.9431 -0.2487
 8818SOL     OW27894   6.555   7.759  11.206  0.3616  0.1611 -0.7592
 8818SOL    HW127895   6.576   7.784  11.116 -0.1593 -0.5200 -1.0844
 8818SOL    HW227896   6.533   7.841  11.250  0.3502  0.4670 -1.3258
 8819SOL     OW27897   0.814   5.922   5.172 -0.4962  0.5719  0.0551
 8819SOL    HW127898   0.817   5.974   5.252 -0.7943 -1.1716  1.2483
 8819SOL    HW227899   0.885   5.957   5.118  0.2614  1.2233  1.4281
 8820SOL     OW27900   3.623   4.002   4.717  0.4385 -0.5271 -0.2063
 8820SOL    HW127901   3.673   4.082   4.734  2.4380 -1.6732 -0.3279
 8820SOL    HW227902   3.606   3.966   4.804 -1.6440  0.6361 -0.0658
 8821SOL     OW27903   2.747   7.840   3.281 -0.0913  0.1980 -0.1521
 8821SOL    HW127904   2.705   7.756   3.263  1.3316 -0.4503 -0.5763
 8821SOL    HW227905   2.766   7.838   3.375 -1.7112  0.8630  0.2329
 8822SOL     OW27906   5.008   0.256   4.841  0.0964 -0.1057  0.2196
 8822SOL    HW127907   5.102   0.235   4.839 -0.0485 -0.7367 -0.5144
 8822SOL    HW227908   4.970   0.199   4.774 -0.8980 -0.2337  0.8844
 8823SOL     OW27909   6.359   2.940  11.470 -0.4003  0.4693  0.1304
 8823SOL    HW127910   6.410   2.952  11.550  2.0806 -1.6114 -0.9703
 8823SOL    HW227911   6.329   3.028  11.447  0.2944  1.3641  2.3867
 8824SOL     OW27912   1.965   1.097   3.335 -0.7570 -0.1421  0.3622
 8824SOL    HW127913   1.876   1.084   3.302 -1.3259  1.3500  1.1943
 8824SOL    HW227914   2.017   1.028   3.293 -2.2576 -0.9147 -0.2948
 8825SOL     OW27915   7.556   6.391   4.536  0.4834 -0.4188 -0.5386
 8825SOL    HW127916   7.596   6.319   4.488 -0.5309 -0.0882 -1.9723
 8825SOL    HW227917   7.466   6.363   4.552  0.1015  0.4473 -1.0318
 8826SOL     OW27918   4.832   5.538   9.028  0.3400  0.2222 -0.0722
 8826SOL    HW127919   4.859   5.450   9.001 -1.2888 -0.2198 -0.3812
 8826SOL    HW227920   4.894   5.596   8.984  1.7945 -0.7708  0.5858
 8827SOL     OW27921   3.689   0.407  11.365 -0.0486 -0.0062 -0.4700
 8827SOL    HW127922   3.700   0.441  11.276  0.0459  1.2340 -0.0101
 8827SOL    HW227923   3.778   0.390  11.395 -0.0780 -0.3898 -0.6076
 8828SOL     OW27924   2.638   5.633  10.506 -0.2355 -0.3119  0.6484
 8828SOL    HW127925   2.612   5.560  10.449 -2.6473  1.1138 -0.2407
 8828SOL    HW227926   2.692   5.689  10.450  0.5813 -0.7666  0.9613
 8829SOL     OW27927   5.720   6.190  10.858 -0.5312  0.1952  0.2143
 8829SOL    HW127928   5.799   6.244  10.854 -0.2535  0.0455  2.2813
 8829SOL    HW227929   5.680   6.212  10.942 -0.0474 -3.2037  1.5223
 8830SOL     OW27930   2.116   4.414   3.478 -0.4682 -0.0566 -0.1182
 8830SOL    HW127931   2.138   4.379   3.392  2.3665  2.9017 -0.7975
 8830SOL    HW227932   2.022   4.431   3.474 -0.2278  1.1589 -3.1924
 8831SOL     OW27933   3.515   3.636   2.576 -0.1354 -0.3210 -0.2247
 8831SOL    HW127934   3.607   3.655   2.593 -0.3366  1.7880 -1.1624
 8831SOL    HW227935   3.470   3.719   2.594 -1.8598 -1.2723  0.1185
 8832SOL     OW27936   1.449   3.883   2.929 -0.2455 -0.4133  0.1515
 8832SOL    HW127937   1.451   3.939   2.852  0.8475 -1.1676 -0.3981
 8832SOL    HW227938   1.506   3.926   2.993 -1.4598  0.4159  0.7196
 8833SOL     OW27939   5.111   4.074  11.875 -0.0365  0.3211  0.4420
 8833SOL    HW127940   5.032   4.044  11.919 -0.6315 -0.4634 -1.0806
 8833SOL    HW227941   5.115   4.021  11.795  2.2317  0.0881  0.6647
 8834SOL     OW27942   4.498   2.673   8.998 -0.2903 -0.5026  0.3536
 8834SOL    HW127943   4.539   2.590   9.024  0.1348  0.1403  1.8095
 8834SOL    HW227944   4.449   2.651   8.919  2.2143 -1.4698 -1.0287
 8835SOL     OW27945   1.312   7.832   5.324  0.3216 -0.1439  0.3086
 8835SOL    HW127946   1.343   7.753   5.369 -2.5670 -1.2514  0.5513
 8835SOL    HW227947   1.310   7.807   5.231 -0.6910 -0.4376  0.3963
 8836SOL     OW27948   2.105   7.011   1.067  0.0075 -0.2397  0.4899
 8836SOL    HW127949   2.163   6.935   1.065  0.5996  0.2188 -1.0544
 8836SOL    HW227950   2.061   7.010   0.982  0.8811  1.7733 -0.0380
 8837SOL     OW27951   5.846   7.291  12.033  0.3379  0.0189  0.1550
 8837SOL    HW127952   5.913   7.285  12.101  0.3097 -0.2738  0.1579
 8837SOL    HW227953   5.778   7.347  12.071  0.9662  1.0163 -0.1772
 8838SOL     OW27954   3.062   2.785  10.491  0.3710  0.0946  0.0458
 8838SOL    HW127955   3.041   2.705  10.540 -0.5878 -0.6951 -1.5663
 8838SOL    HW227956   2.982   2.838  10.496  0.8665  0.7995  0.7691
 8839SOL     OW27957   1.988   6.920   3.428  0.0181 -0.1703  0.1452
 8839SOL    HW127958   2.036   6.911   3.345  0.3338  1.3744  0.1318
 8839SOL    HW227959   2.051   6.894   3.495  0.7499  1.3443  0.0897
 8840SOL     OW27960   2.767   4.217   8.330 -0.3628  1.0703  0.4758
 8840SOL    HW127961   2.689   4.272   8.337 -0.6736  0.6270  0.4671
 8840SOL    HW227962   2.784   4.188   8.420 -1.4383 -0.5416  0.1922
 8841SOL     OW27963   6.528   3.079   6.671 -0.2359  0.0617  0.2777
 8841SOL    HW127964   6.463   3.061   6.738 -1.3719  4.3408  0.5666
 8841SOL    HW227965   6.600   3.122   6.717  0.1430  0.7153 -0.8865
 8842SOL     OW27966   0.187   3.270   2.799 -0.3222 -0.0194 -0.3384
 8842SOL    HW127967   0.234   3.299   2.721 -1.7184 -0.8711 -1.5422
 8842SOL    HW227968   0.249   3.284   2.871  1.3560 -0.1258 -1.7032
 8843SOL     OW27969   7.410   6.247   6.711  0.5098  0.5407 -0.0046
 8843SOL    HW127970   7.341   6.292   6.661  0.8605  0.6445 -0.3942
 8843SOL    HW227971   7.475   6.222   6.646 -0.8390 -2.8735 -0.2672
 8844SOL     OW27972   7.665   6.694   0.723 -0.0296 -0.7498  0.4221
 8844SOL    HW127973   7.572   6.705   0.703  0.0283 -1.8187 -0.5505
 8844SOL    HW227974   7.670   6.611   0.770  0.3548 -0.3032  1.1936
 8845SOL     OW27975   0.571   4.610   1.636  0.0625  0.1707  0.3091
 8845SOL    HW127976   0.565   4.704   1.655 -0.1326  0.1587  0.3161
 8845SOL    HW227977   0.644   4.579   1.689  0.3292  0.3795  0.0630
 8846SOL     OW27978   4.919   0.402   0.466 -0.2719 -0.2234  0.0878
 8846SOL    HW127979   4.851   0.441   0.411 -0.1703 -1.1062 -0.6919
 8846SOL    HW227980   4.999   0.410   0.413  0.3438  1.1811  1.1584
 8847SOL     OW27981   7.804   5.649  10.552  0.2641 -0.0441  0.7123
 8847SOL    HW127982   7.842   5.598  10.480  0.7455 -1.8116  2.1421
 8847SOL    HW227983   7.815   5.593  10.629 -3.6988  0.0444  1.5663
 8848SOL     OW27984   7.186   0.585  11.234  0.0163 -0.2527  0.1465
 8848SOL    HW127985   7.183   0.645  11.308 -0.9182 -0.2098  0.0773
 8848SOL    HW227986   7.257   0.525  11.255  2.6446  2.2417 -0.8521
 8849SOL     OW27987   5.339   6.370   7.173 -0.3536  0.1343  0.3451
 8849SOL    HW127988   5.327   6.341   7.264  3.3196  0.4426  1.0552
 8849SOL    HW227989   5.393   6.302   7.133 -1.5211  0.2467 -1.5294
 8850SOL     OW27990   1.444   0.031   4.838 -0.0223  0.3502  0.1350
 8850SOL    HW127991   1.397  -0.005   4.762 -1.9270 -0.0344  1.4270
 8850SOL    HW227992   1.520  -0.026   4.848  0.3003  0.4357 -1.4851
 8851SOL     OW27993   6.235   6.975  11.657  0.0682  0.2234 -0.4857
 8851SOL    HW127994   6.150   6.977  11.701  0.2719 -0.9012 -0.0167
 8851SOL    HW227995   6.240   6.888  11.618  0.2388  0.9165 -2.0826
 8852SOL     OW27996   4.720   0.682   9.151  0.0878  0.2571 -0.1314
 8852SOL    HW127997   4.704   0.588   9.156 -0.4609  0.4095  1.5086
 8852SOL    HW227998   4.655   0.721   9.210  0.7443  1.6040 -0.2524
 8853SOL     OW27999   1.279   0.030   1.656 -0.1870  0.2169 -0.6043
 8853SOL    HW128000   1.290   0.109   1.602  0.0414 -0.9458 -2.3517
 8853SOL    HW228001   1.246   0.062   1.740 -1.0751  2.0739 -1.6056
 8854SOL     OW28002   2.085   3.519   4.039 -0.1540  0.6153  0.4607
 8854SOL    HW128003   2.151   3.585   4.019 -1.1280  1.4205 -0.1952
 8854SOL    HW228004   2.009   3.545   3.987 -0.1568 -1.7817 -0.8579
 8855SOL     OW28005   6.851   6.859   6.072  0.5834 -0.3309 -0.4763
 8855SOL    HW128006   6.798   6.855   5.992 -0.0407 -0.7942 -0.0545
 8855SOL    HW228007   6.816   6.934   6.120  0.2437 -0.6811 -0.1634
 8856SOL     OW28008   2.327   4.314   5.788 -0.4038  0.3480 -0.0307
 8856SOL    HW128009   2.342   4.384   5.724  2.6469 -0.4412 -0.3172
 8856SOL    HW228010   2.306   4.238   5.734  0.6851  0.0311 -0.0164
 8857SOL     OW28011   4.947   1.517   2.215  0.3026 -0.1090  0.9265
 8857SOL    HW128012   4.923   1.499   2.306  0.9046  0.6498  1.2518
 8857SOL    HW228013   5.042   1.503   2.213  0.3539  0.2825  0.5217
 8858SOL     OW28014   6.502   7.523  10.536 -0.3848 -0.1289  0.0837
 8858SOL    HW128015   6.518   7.609  10.495 -2.5632  0.5981  0.6326
 8858SOL    HW228016   6.554   7.525  10.616  0.5224  0.1832 -0.4934
 8859SOL     OW28017   0.963   1.327   1.170 -0.2488  0.0615 -0.5676
 8859SOL    HW128018   0.910   1.401   1.200 -1.2419  0.0397 -2.1676
 8859SOL    HW228019   0.943   1.319   1.077  1.5751 -0.8059 -0.9362
 8860SOL     OW28020   0.451   6.482   1.239 -0.2069 -0.2612  0.3590
 8860SOL    HW128021   0.464   6.540   1.315  0.1658  0.0930  0.0344
 8860SOL    HW228022   0.487   6.398   1.267  0.6942  0.0896  0.2974
 8861SOL     OW28023   4.895   5.846   9.593 -0.4099 -0.0648 -0.0580
 8861SOL    HW128024   4.987   5.834   9.614 -0.2435  1.0409 -0.1211
 8861SOL    HW228025   4.888   5.818   9.501 -0.0467  0.2307 -0.1795
 8862SOL     OW28026   0.976   1.619   0.853 -0.0136 -0.0790  0.1320
 8862SOL    HW128027   1.029   1.594   0.777 -1.6635  0.4522 -1.2497
 8862SOL    HW228028   1.039   1.623   0.925  1.7965  0.2703 -1.3680
 8863SOL     OW28029   5.214   4.547   7.858 -0.4553 -0.2138 -0.0614
 8863SOL    HW128030   5.186   4.565   7.769 -0.6069 -2.0827 -0.4283
 8863SOL    HW228031   5.143   4.495   7.896 -0.2344  0.2593  1.0398
 8864SOL     OW28032   0.588   6.347   1.696 -0.3985 -0.3048  0.4611
 8864SOL    HW128033   0.641   6.405   1.641 -1.2698 -0.1790 -0.2701
 8864SOL    HW228034   0.609   6.374   1.785  0.3024  0.1606  0.1661
 8865SOL     OW28035   1.911   0.698  11.860 -0.6685 -0.0304 -0.2715
 8865SOL    HW128036   1.966   0.623  11.880 -0.9792 -0.3276 -0.5291
 8865SOL    HW228037   1.915   0.706  11.765 -0.6453  0.2734 -0.2463
 8866SOL     OW28038   4.347   4.568  12.072 -0.1695 -0.0877 -0.2645
 8866SOL    HW128039   4.395   4.651  12.083 -0.4057 -0.0981  0.9640
 8866SOL    HW228040   4.393   4.523  12.001  0.1597  0.9510 -0.7310
 8867SOL     OW28041   4.552   0.271   0.817 -0.3654  0.5044 -0.4373
 8867SOL    HW128042   4.460   0.255   0.838 -0.1687 -0.0988  0.0010
 8867SOL    HW228043   4.556   0.269   0.722 -1.4238  4.0625 -0.7214
 8868SOL     OW28044   3.958   2.499   1.469  0.0314  0.8888 -0.3662
 8868SOL    HW128045   3.895   2.474   1.536  1.4770  1.8751  1.4634
 8868SOL    HW228046   3.909   2.555   1.409 -1.3130 -0.0529 -0.1894
 8869SOL     OW28047   3.095   5.865   9.411 -0.1076  0.3588 -0.0238
 8869SOL    HW128048   3.127   5.781   9.446 -1.2071 -1.2287 -2.5068
 8869SOL    HW228049   3.026   5.891   9.472 -2.0074 -2.3278 -0.8161
 8870SOL     OW28050   2.099   2.401   1.182 -0.2366 -0.1386  0.0606
 8870SOL    HW128051   2.106   2.391   1.087 -0.4681 -0.0727  0.0340
 8870SOL    HW228052   2.097   2.311   1.216  0.7557 -0.1611  0.0813
 8871SOL     OW28053   1.700   5.480   5.160  0.3124  0.9583 -0.4153
 8871SOL    HW128054   1.699   5.384   5.160 -0.0103  0.9429 -1.7768
 8871SOL    HW228055   1.619   5.505   5.116 -0.0719  1.8852  0.7803
 8872SOL     OW28056   6.150   4.300   6.791 -0.4051  0.0259 -0.2656
 8872SOL    HW128057   6.112   4.373   6.839  0.5266  1.1549 -1.1788
 8872SOL    HW228058   6.080   4.270   6.733 -0.9146 -0.0683  0.3865
 8873SOL     OW28059   6.071   3.419   5.533  0.0160  0.1434  0.1442
 8873SOL    HW128060   6.138   3.373   5.584 -0.0774  1.3931  1.4545
 8873SOL    HW228061   6.077   3.381   5.446 -0.5008 -2.8541  1.2705
 8874SOL     OW28062   0.916   4.246  10.769 -0.1336  0.0328 -0.2507
 8874SOL    HW128063   0.869   4.296  10.702 -0.5437  0.7427  0.5438
 8874SOL    HW228064   0.851   4.186  10.804 -0.4776  0.9656  0.7992
 8875SOL     OW28065   4.816   4.246   9.102  0.3251  0.2566 -0.0235
 8875SOL    HW128066   4.786   4.332   9.074  1.3777  0.8356  0.5860
 8875SOL    HW228067   4.743   4.210   9.153 -0.6840  0.1631 -1.4730
 8876SOL     OW28068   5.132   7.765   0.900 -0.0241 -0.5281 -0.0208
 8876SOL    HW128069   5.037   7.768   0.911 -0.2016  3.4455 -0.9362
 8876SOL    HW228070   5.146   7.766   0.805  0.9971 -1.9443  0.0819
 8877SOL     OW28071   0.753   3.067   2.971 -0.7664  0.4978 -0.4094
 8877SOL    HW128072   0.783   3.122   3.044  0.6660 -1.5310  0.6049
 8877SOL    HW228073   0.806   3.095   2.897 -1.2184  1.5859 -0.3474
 8878SOL     OW28074   7.889   7.286   7.732  0.2532 -0.4594 -0.3915
 8878SOL    HW128075   7.860   7.211   7.681 -2.2799  1.2165 -1.6274
 8878SOL    HW228076   7.958   7.326   7.678  1.1829 -1.4826 -0.0098
 8879SOL     OW28077   7.890   3.301   1.422  0.7226  0.0377  0.5218
 8879SOL    HW128078   7.844   3.292   1.505  0.5819 -0.4840  0.3887
 8879SOL    HW228079   7.871   3.220   1.374  1.4133  0.0050  0.2882
 8880SOL     OW28080   1.037   3.572   2.017  0.1908  0.4056 -0.3076
 8880SOL    HW128081   1.034   3.598   1.925  2.2444 -1.8966 -1.1341
 8880SOL    HW228082   0.997   3.485   2.019  2.5437 -0.7707  0.3634
 8881SOL     OW28083   3.914   4.191   2.443  0.6517 -0.4607  0.5787
 8881SOL    HW128084   3.920   4.277   2.401 -0.6991  0.1960  1.6368
 8881SOL    HW228085   3.953   4.204   2.529  0.6488 -0.9675  0.6598
 8882SOL     OW28086   7.448   5.860   9.609 -0.1881 -0.7052  0.5343
 8882SOL    HW128087   7.479   5.824   9.692 -1.0804 -2.0170  0.3159
 8882SOL    HW228088   7.435   5.784   9.552 -1.0368  0.0499 -0.3231
 8883SOL     OW28089   3.468   0.819  10.580 -0.3408  0.5603  0.0006
 8883SOL    HW128090   3.537   0.857  10.634 -0.3474  1.7880 -0.8304
 8883SOL    HW228091   3.511   0.797  10.498 -0.6038 -0.1545  0.0440
 8884SOL     OW28092   6.288   6.611   1.381  0.2126  0.5858 -0.2404
 8884SOL    HW128093   6.306   6.705   1.375 -0.3021  0.7908  0.9902
 8884SOL    HW228094   6.197   6.603   1.354  0.5845  0.2764 -1.4289
 8885SOL     OW28095   7.723   6.297   7.524 -0.1917  0.6605  0.7806
 8885SOL    HW128096   7.747   6.273   7.614 -1.4677  2.2088  1.5839
 8885SOL    HW228097   7.721   6.393   7.525 -0.1759  0.7002 -0.9345
 8886SOL     OW28098   1.325   7.425   7.035  0.1925  0.6202  0.1942
 8886SOL    HW128099   1.367   7.415   7.121  2.8792  2.2257 -0.8139
 8886SOL    HW228100   1.321   7.336   6.999 -0.2708  0.0268  1.6335
 8887SOL     OW28101   2.649   0.700   7.159 -0.0461  0.1896  0.5330
 8887SOL    HW128102   2.642   0.692   7.254 -1.4619 -0.0579  0.4347
 8887SOL    HW228103   2.742   0.715   7.142  0.6382 -2.1872  1.7764
 8888SOL     OW28104   3.079   2.786   4.103  0.7245 -0.5206  0.1253
 8888SOL    HW128105   3.155   2.845   4.104  0.4108 -0.1024 -0.4653
 8888SOL    HW228106   3.041   2.797   4.017 -0.8363  0.3350  0.8916
 8889SOL     OW28107   6.464   0.600   1.633  0.0349 -0.1442  0.0530
 8889SOL    HW128108   6.547   0.598   1.584 -0.3128 -1.8582 -0.5083
 8889SOL    HW228109   6.470   0.527   1.694 -0.9603 -0.1324  0.1781
 8890SOL     OW28110   5.036   3.550   1.228 -0.1307 -0.6076 -0.7656
 8890SOL    HW128111   5.084   3.583   1.152 -1.7499  0.8031 -1.2365
 8890SOL    HW228112   4.978   3.622   1.253  1.9313 -0.0789  3.2979
 8891SOL     OW28113   3.033   6.998   7.789  0.1702 -0.3459  0.2798
 8891SOL    HW128114   3.095   6.963   7.854 -0.5210  1.7471  2.1837
 8891SOL    HW228115   2.989   7.069   7.834  0.5634  2.1604 -2.9317
 8892SOL     OW28116   7.272   5.310   7.518 -0.3127  0.0320 -0.4684
 8892SOL    HW128117   7.233   5.386   7.474 -1.8396 -0.9077 -0.7935
 8892SOL    HW228118   7.207   5.241   7.510  1.8759 -2.0193 -2.0534
 8893SOL     OW28119   4.798   1.504   2.804  0.2365  0.3411 -0.3935
 8893SOL    HW128120   4.862   1.436   2.783 -0.1967 -0.1023 -0.2930
 8893SOL    HW228121   4.765   1.481   2.891 -1.6133 -0.6691 -1.2975
 8894SOL     OW28122   1.100   0.699   2.581  0.3619 -0.0624 -0.4304
 8894SOL    HW128123   1.096   0.604   2.590 -0.3960  0.0855  1.0966
 8894SOL    HW228124   1.179   0.725   2.627 -0.1658  0.1549  0.3713
 8895SOL     OW28125   0.016   0.521   6.981  0.0724 -0.2222 -0.1929
 8895SOL    HW128126  -0.073   0.503   6.948 -0.0755 -1.8130  0.9094
 8895SOL    HW228127   0.071   0.456   6.937  0.2877 -0.7202  0.7812
 8896SOL     OW28128   0.948   4.876   0.151  0.0218 -0.1798  0.0870
 8896SOL    HW128129   1.029   4.917   0.181 -0.8015  1.2583  0.4547
 8896SOL    HW228130   0.950   4.787   0.187  2.0737 -0.6853 -1.1095
 8897SOL     OW28131   7.464   3.587  11.645  0.8727 -0.3772 -0.1433
 8897SOL    HW128132   7.395   3.523  11.629 -0.0578  0.3307  0.9390
 8897SOL    HW228133   7.519   3.547  11.713  0.9043 -0.4722 -0.2242
 8898SOL     OW28134   0.916   0.839  10.225  0.4264  0.4784  0.9600
 8898SOL    HW128135   0.974   0.827  10.300 -0.1267  2.2161  1.7016
 8898SOL    HW228136   0.853   0.905  10.253  1.5572  2.9042 -1.7680
 8899SOL     OW28137   4.111   7.443   0.310 -0.2491 -0.0948 -0.6072
 8899SOL    HW128138   4.120   7.351   0.333  0.8133  0.1717  0.1406
 8899SOL    HW228139   4.193   7.483   0.341 -1.7311  1.5536  1.4597
 8900SOL     OW28140   2.710   5.381   0.272 -0.1744 -0.6223  0.1539
 8900SOL    HW128141   2.615   5.378   0.274 -0.1547 -1.0812  0.7006
 8900SOL    HW228142   2.736   5.295   0.239  0.0466 -0.4111 -0.2300
 8901SOL     OW28143   6.721   6.040  11.062  0.7799  0.5071 -0.6437
 8901SOL    HW128144   6.629   6.041  11.033  0.6672  1.7125 -0.2847
 8901SOL    HW228145   6.736   6.127  11.099  1.1854 -0.6568  2.1471
 8902SOL     OW28146   3.191   2.106   9.753 -0.3259  0.4559 -0.0698
 8902SOL    HW128147   3.152   2.128   9.838  0.0363  0.0074  0.2212
 8902SOL    HW228148   3.266   2.164   9.744  0.6902 -0.6729  0.7436
 8903SOL     OW28149   1.845   1.019   3.642 -0.2117 -0.1555 -0.3756
 8903SOL    HW128150   1.905   0.969   3.588  0.3199 -1.1255  1.0703
 8903SOL    HW228151   1.807   0.955   3.702  0.4156  1.1229  1.4667
 8904SOL     OW28152   1.896   0.922   7.995 -0.2981  0.2712  0.1827
 8904SOL    HW128153   1.879   0.932   8.088 -0.4740  0.1277  0.1652
 8904SOL    HW228154   1.899   0.828   7.980 -0.1087  0.2938  0.0732
 8905SOL     OW28155   3.845   0.463   9.174 -0.5281 -0.4053 -0.3144
 8905SOL    HW128156   3.848   0.541   9.228 -1.6870 -0.5074 -0.0665
 8905SOL    HW228157   3.929   0.461   9.128 -0.6538  1.2252 -0.6715
 8906SOL     OW28158   5.055   3.529   2.371  0.0964  0.6725 -0.4609
 8906SOL    HW128159   5.046   3.434   2.379 -1.2359  0.6398 -1.8602
 8906SOL    HW228160   5.018   3.563   2.452 -0.7940  0.0286 -0.5834
 8907SOL     OW28161   5.834   3.001   1.347 -0.0219 -0.1055 -0.4181
 8907SOL    HW128162   5.829   3.053   1.267  2.4561 -0.3233 -0.7805
 8907SOL    HW228163   5.903   2.937   1.330  0.5464 -0.1765  1.8505
 8908SOL     OW28164   6.925   0.642   0.688 -0.2486 -0.1972 -0.0678
 8908SOL    HW128165   7.004   0.658   0.739 -0.9931 -0.4770  1.1907
 8908SOL    HW228166   6.854   0.648   0.751 -1.0561 -2.3617 -0.7004
 8909SOL     OW28167   3.226   5.220   2.094  0.0508  0.5928  0.0383
 8909SOL    HW128168   3.162   5.232   2.164 -0.3480  0.3063 -0.2746
 8909SOL    HW228169   3.195   5.144   2.045  0.7581  0.2995  0.0267
 8910SOL     OW28170   6.187   6.750   5.684  0.2604 -0.4118 -0.1395
 8910SOL    HW128171   6.261   6.755   5.744  1.3546 -0.4844 -1.4346
 8910SOL    HW228172   6.168   6.841   5.662 -2.8655  0.0104  3.4103
 8911SOL     OW28173   3.768   2.168  10.061  0.1775 -0.2163  0.0915
 8911SOL    HW128174   3.672   2.171  10.060  0.1635 -0.2032 -1.4628
 8911SOL    HW228175   3.794   2.239  10.120 -0.7564  0.8013 -0.6980
 8912SOL     OW28176   0.148   5.432   8.053 -0.0148 -0.0432  0.0676
 8912SOL    HW128177   0.155   5.495   7.982  0.0337  2.1212  1.8926
 8912SOL    HW228178   0.228   5.443   8.104  0.0666 -1.7139  0.3674
 8913SOL     OW28179   1.415   7.488   3.275  0.3868  0.0667 -0.1928
 8913SOL    HW128180   1.421   7.513   3.182 -0.1645 -0.3765 -0.3527
 8913SOL    HW228181   1.333   7.439   3.281  0.6743 -0.3392  0.4309
 8914SOL     OW28182   7.902   6.202   2.278  0.1046 -0.4179 -0.1631
 8914SOL    HW128183   7.929   6.163   2.361 -0.8097  1.0012  0.8347
 8914SOL    HW228184   7.983   6.205   2.226  0.9463 -0.2963  1.0934
 8915SOL     OW28185   6.142   0.255   2.360  0.1155 -0.1521  0.0341
 8915SOL    HW128186   6.072   0.230   2.421  1.1986 -0.5247  1.1712
 8915SOL    HW228187   6.218   0.270   2.416  0.7830  0.9246 -1.1045
 8916SOL     OW28188   7.080   3.254   9.397  0.2392  0.1565 -0.3908
 8916SOL    HW128189   7.014   3.187   9.380 -1.0830  1.4076 -0.3868
 8916SOL    HW228190   7.162   3.206   9.407 -1.0385 -1.6941  2.0088
 8917SOL     OW28191   2.322   1.846   3.280 -0.0657  0.2959 -0.2970
 8917SOL    HW128192   2.384   1.779   3.308 -1.1231 -0.4463  0.3616
 8917SOL    HW228193   2.341   1.922   3.335  1.1030  0.5431 -1.0086
 8918SOL     OW28194   4.449   1.850   5.722 -0.2936 -0.3413 -0.2169
 8918SOL    HW128195   4.478   1.914   5.657  1.0579 -0.6262  0.0640
 8918SOL    HW228196   4.373   1.808   5.683 -1.2377  1.4318 -0.4006
 8919SOL     OW28197   4.478   1.867   9.496 -0.0470 -0.0333  0.2261
 8919SOL    HW128198   4.491   1.955   9.532 -1.4811  1.1419 -1.9224
 8919SOL    HW228199   4.387   1.845   9.517 -0.0262 -0.5332 -0.1754
 8920SOL     OW28200   3.222   7.004   0.529  0.6412 -0.1481 -0.3767
 8920SOL    HW128201   3.176   6.942   0.472 -0.0874 -1.0199  1.1039
 8920SOL    HW228202   3.165   7.081   0.533  0.5313 -0.2205 -0.5487
 8921SOL     OW28203   7.279   2.347  12.265 -0.2886  0.1442  0.5163
 8921SOL    HW128204   7.215   2.413  12.239 -0.9042  0.2980  2.2804
 8921SOL    HW228205   7.324   2.324  12.184 -0.4752  2.2682 -0.2591
 8922SOL     OW28206   6.290   5.362   1.990  0.0943 -0.1661  0.3075
 8922SOL    HW128207   6.355   5.309   1.943 -0.5117 -0.6837  0.0297
 8922SOL    HW228208   6.279   5.440   1.936  1.9948  0.9369  1.4036
 8923SOL     OW28209   7.083   1.687   3.195 -0.0216  0.1336  0.6259
 8923SOL    HW128210   7.166   1.715   3.157 -0.5126  1.0738  0.1935
 8923SOL    HW228211   7.060   1.607   3.148  0.0751  0.5125 -0.0763
 8924SOL     OW28212   1.304   1.065   8.314  0.5626  0.9190  0.0221
 8924SOL    HW128213   1.310   0.980   8.357  1.0414  1.5463  1.2265
 8924SOL    HW228214   1.386   1.073   8.265  1.3266  1.4288  1.3414
 8925SOL     OW28215   7.821   2.831   5.368  0.7840 -0.3932  0.0113
 8925SOL    HW128216   7.848   2.862   5.282  0.2857 -0.5096 -0.1929
 8925SOL    HW228217   7.886   2.867   5.429 -1.1531  3.3215  0.1438
 8926SOL     OW28218   6.862   1.169  10.588  0.1058 -0.3595 -0.3740
 8926SOL    HW128219   6.836   1.085  10.549  2.8301 -1.3523 -0.2409
 8926SOL    HW228220   6.851   1.232  10.517 -2.3491 -0.6673 -0.3709
 8927SOL     OW28221   3.957   7.252   3.636 -0.3016  0.1036  0.8064
 8927SOL    HW128222   3.918   7.308   3.703 -0.1600 -0.6093  1.4985
 8927SOL    HW228223   3.895   7.180   3.626  0.6567 -0.8836  1.7036
 8928SOL     OW28224   5.497   7.029   5.232 -0.6457  0.3674  0.0278
 8928SOL    HW128225   5.523   6.988   5.150 -0.0325 -2.7933  1.6643
 8928SOL    HW228226   5.428   7.091   5.207 -0.5062 -0.4877 -2.8300
 8929SOL     OW28227   5.284   3.743   5.462 -0.3242  0.1877 -0.8653
 8929SOL    HW128228   5.324   3.706   5.384  2.7755  1.5202 -0.0461
 8929SOL    HW228229   5.342   3.815   5.488 -3.1864  2.1670  0.6219
 8930SOL     OW28230   3.127   6.650   1.700 -0.2870 -0.4303  0.4322
 8930SOL    HW128231   3.173   6.695   1.630 -0.3066 -3.2655 -1.5631
 8930SOL    HW228232   3.077   6.582   1.656 -0.1431 -2.5041  3.2048
 8931SOL     OW28233   6.581   5.456   1.113  0.4544  0.1730  0.5444
 8931SOL    HW128234   6.543   5.417   1.034  1.2616  0.7188 -0.1287
 8931SOL    HW228235   6.673   5.471   1.091  0.2970  2.0068  0.9366
 8932SOL     OW28236   3.803   5.597   5.371  0.2567 -0.3096 -1.0353
 8932SOL    HW128237   3.774   5.655   5.301 -0.3818 -0.7279 -1.1276
 8932SOL    HW228238   3.766   5.636   5.451  2.1941  0.9943 -0.7022
 8933SOL     OW28239   3.997   2.043   7.403  0.0354  0.2047 -1.1009
 8933SOL    HW128240   3.957   1.983   7.466 -1.0275 -0.5019 -2.3911
 8933SOL    HW228241   4.081   2.067   7.443  0.7679 -2.5656 -0.7426
 8934SOL     OW28242   7.255   0.012  12.131 -0.0293 -0.8942 -0.2306
 8934SOL    HW128243   7.236  -0.050  12.061  0.9985 -0.9454 -0.4868
 8934SOL    HW228244   7.171   0.052  12.152 -0.5866 -1.8984 -0.5147
 8935SOL     OW28245   4.111   1.111   3.297 -0.4322  0.4894 -0.3852
 8935SOL    HW128246   4.089   1.179   3.234 -0.7346  0.8247  0.0815
 8935SOL    HW228247   4.205   1.097   3.285 -0.2633  1.3673 -0.1097
 8936SOL     OW28248   2.873   6.637   1.401 -0.3796  0.3580 -0.1402
 8936SOL    HW128249   2.878   6.622   1.495  0.6262 -1.9280 -0.4818
 8936SOL    HW228250   2.815   6.713   1.391 -0.3874  0.7383  2.2949
 8937SOL     OW28251   1.235   2.560   8.968  0.2035 -0.0771 -0.0560
 8937SOL    HW128252   1.213   2.596   8.882 -0.6112  1.3288  0.6962
 8937SOL    HW228253   1.240   2.466   8.955  1.8533  0.2387 -2.0103
 8938SOL     OW28254   4.984   3.415  12.092 -0.4687 -0.0959  0.5639
 8938SOL    HW128255   4.941   3.333  12.115 -0.6535 -0.2696 -0.3725
 8938SOL    HW228256   5.076   3.401  12.116 -0.8352  0.1210  2.1553
 8939SOL     OW28257   5.612   3.386  10.647 -0.6400  0.0268 -0.1557
 8939SOL    HW128258   5.518   3.381  10.660 -0.5119 -0.2183  0.7832
 8939SOL    HW228259   5.645   3.430  10.726  0.0748 -0.3373 -0.2365
 8940SOL     OW28260   0.572   0.315   5.507  0.4986 -0.6961 -0.1185
 8940SOL    HW128261   0.571   0.357   5.421  1.2454  0.4885  0.4245
 8940SOL    HW228262   0.605   0.227   5.490 -0.2236 -0.7833 -1.1662
 8941SOL     OW28263   4.836   1.116   4.713  0.4647  0.2030  0.1425
 8941SOL    HW128264   4.909   1.176   4.697  0.3588 -0.0197 -1.3194
 8941SOL    HW228265   4.840   1.097   4.807  3.4190 -1.2588 -0.1648
 8942SOL     OW28266   3.023   4.232   4.207 -0.0459 -0.3060 -0.0754
 8942SOL    HW128267   3.073   4.241   4.289  0.3358  0.3569 -0.3703
 8942SOL    HW228268   3.013   4.138   4.195  0.6540 -0.4348  0.2862
 8943SOL     OW28269   7.120   5.117   6.052  0.5950  0.6632  0.4897
 8943SOL    HW128270   7.215   5.106   6.045  0.6572  2.0759 -1.8770
 8943SOL    HW228271   7.085   5.029   6.042  1.6181  0.2121  0.7602
 8944SOL     OW28272   3.154   1.029   2.239  0.2474 -0.5188 -0.5696
 8944SOL    HW128273   3.063   1.023   2.267  0.3505  0.8018  0.1558
 8944SOL    HW228274   3.162   0.965   2.169 -1.6439  0.3523 -1.6796
 8945SOL     OW28275   7.133   3.690   2.962 -0.1253 -0.2159 -0.2197
 8945SOL    HW128276   7.055   3.641   2.987  0.0548 -2.5295 -3.5374
 8945SOL    HW228277   7.114   3.780   2.988 -3.6246 -0.7850 -0.3460
 8946SOL     OW28278   6.387   2.005   0.996 -0.3132 -0.1675  0.6200
 8946SOL    HW128279   6.329   2.000   0.920  0.7013  1.2091 -0.3042
 8946SOL    HW228280   6.375   1.922   1.041 -0.4186 -1.3432 -1.4384
 8947SOL     OW28281   7.120   4.530  10.545  0.0418 -0.1680 -0.1959
 8947SOL    HW128282   7.196   4.564  10.591 -0.2447  0.4524 -0.1671
 8947SOL    HW228283   7.064   4.494  10.614  0.8990 -1.8534 -0.3358
 8948SOL     OW28284   7.815   6.165   2.018  0.2574 -0.3324  0.2428
 8948SOL    HW128285   7.881   6.097   2.003  0.6202  0.1821 -0.5803
 8948SOL    HW228286   7.826   6.188   2.110  0.1845 -1.3181  0.5141
 8949SOL     OW28287   2.341   1.187   6.454  0.2574  0.0845  0.2581
 8949SOL    HW128288   2.404   1.144   6.511  3.0015 -0.5991 -2.9587
 8949SOL    HW228289   2.382   1.270   6.430 -0.1717 -0.1959 -1.6255
 8950SOL     OW28290   6.469   3.903   5.587  1.0142  0.2890  0.5623
 8950SOL    HW128291   6.484   3.991   5.553 -0.5795 -0.3598 -2.0906
 8950SOL    HW228292   6.499   3.844   5.518 -0.8898 -1.1767  0.8813
 8951SOL     OW28293   2.604   0.116   1.593  0.2549 -0.9902  0.3530
 8951SOL    HW128294   2.569   0.196   1.554 -0.1228 -0.5789  1.5085
 8951SOL    HW228295   2.680   0.145   1.643  0.4481 -1.4427  0.3274
 8952SOL     OW28296   7.409   4.293   9.459  0.2114 -0.5413 -0.0357
 8952SOL    HW128297   7.498   4.322   9.441 -0.3644  0.7743 -0.9101
 8952SOL    HW228298   7.409   4.271   9.552  1.1213  0.7239  0.2887
 8953SOL     OW28299   4.136   1.796   6.742  0.3398  0.0936  0.5028
 8953SOL    HW128300   4.076   1.744   6.795 -0.3483  1.7317  1.4256
 8953SOL    HW228301   4.220   1.750   6.748 -0.0061 -0.3926  2.0747
 8954SOL     OW28302   1.272   1.602   5.565 -0.0111  0.3553 -0.1935
 8954SOL    HW128303   1.181   1.597   5.537 -0.1626  0.8588  0.1869
 8954SOL    HW228304   1.286   1.521   5.615  0.0994 -0.2728 -1.2148
 8955SOL     OW28305   5.573   3.474   0.055  0.2714 -0.1571 -0.1684
 8955SOL    HW128306   5.567   3.420   0.134  0.3064 -1.8609 -1.2831
 8955SOL    HW228307   5.667   3.486   0.041  0.2595  0.3482  0.1782
 8956SOL     OW28308   1.215   0.227   9.000  0.1922  1.0858  0.1580
 8956SOL    HW128309   1.284   0.160   8.991  1.6338  2.4804  0.4230
 8956SOL    HW228310   1.160   0.215   8.922  1.3651  0.6214 -0.6276
 8957SOL     OW28311   1.456   2.361   0.961 -0.3478  0.5368  0.4043
 8957SOL    HW128312   1.511   2.427   1.003 -0.1867  1.3079 -0.9696
 8957SOL    HW228313   1.508   2.281   0.964 -0.4651  0.4760  1.9197
 8958SOL     OW28314   7.082   1.921   1.201  0.5838  1.0209 -0.0899
 8958SOL    HW128315   7.144   1.947   1.269  2.6612  0.1713 -1.5582
 8958SOL    HW228316   7.133   1.922   1.120 -1.2598 -0.0417 -1.3438
 8959SOL     OW28317   1.556   6.169   6.805 -0.2609  0.0743 -0.0794
 8959SOL    HW128318   1.504   6.171   6.724 -2.3640 -1.6027  1.1127
 8959SOL    HW228319   1.632   6.115   6.783 -1.0706 -0.7933 -0.8375
 8960SOL     OW28320   6.054   0.487   7.047  0.0676 -0.4458  0.2476
 8960SOL    HW128321   5.992   0.421   7.078 -0.1810 -0.2268  0.2224
 8960SOL    HW228322   6.013   0.571   7.069  1.5216 -0.2726  2.5527
 8961SOL     OW28323   4.161   3.345   5.388  0.2294 -0.5615 -0.1675
 8961SOL    HW128324   4.212   3.266   5.405 -0.1774 -0.4398  1.9305
 8961SOL    HW228325   4.071   3.314   5.379  0.0810 -0.3565  0.5778
 8962SOL     OW28326   2.059   7.502   9.310  0.0623  0.5038  0.0125
 8962SOL    HW128327   2.009   7.529   9.387 -0.7348  1.9716 -0.9548
 8962SOL    HW228328   2.023   7.416   9.286  0.2041  0.1176  1.1577
 8963SOL     OW28329   0.810   5.838  10.095 -0.2261 -0.3694  0.1623
 8963SOL    HW128330   0.750   5.900  10.137  0.9280  0.2839  0.8811
 8963SOL    HW228331   0.775   5.752  10.119 -1.4220 -0.0268 -0.2449
 8964SOL     OW28332   0.786   4.570   7.638  0.5913  0.4152 -0.2420
 8964SOL    HW128333   0.875   4.562   7.672  0.1303 -0.9425  0.6969
 8964SOL    HW228334   0.775   4.493   7.583  0.2126  0.9338 -0.9044
 8965SOL     OW28335   1.868   7.845  10.436 -0.1522  0.9890 -0.1564
 8965SOL    HW128336   1.852   7.932  10.474 -0.5807  1.1617 -0.7195
 8965SOL    HW228337   1.909   7.863  10.352 -1.5585  0.7131 -0.9348
 8966SOL     OW28338   7.283   7.036   5.129  0.0582  0.1456 -0.1323
 8966SOL    HW128339   7.304   7.129   5.133  0.1522  0.4041 -3.4386
 8966SOL    HW228340   7.367   6.991   5.139  0.0228  0.3878  1.3742
 8967SOL     OW28341   2.744   2.517   8.935  0.6198 -0.5237 -0.0925
 8967SOL    HW128342   2.708   2.488   8.852  0.0921  2.0077 -0.8584
 8967SOL    HW228343   2.836   2.537   8.916  1.1423 -2.1848  0.5734
 8968SOL     OW28344   6.717   5.935   2.585  0.0333  0.7609 -0.2790
 8968SOL    HW128345   6.624   5.909   2.587 -0.0260  1.0023  0.7308
 8968SOL    HW228346   6.715   6.027   2.560 -0.0520  0.9592  0.4468
 8969SOL     OW28347   6.989   3.585   2.211 -0.6069 -0.7060  0.2607
 8969SOL    HW128348   7.070   3.541   2.236 -0.6821 -0.8399  0.2662
 8969SOL    HW228349   6.930   3.570   2.285 -1.5522 -2.9003 -0.8481
 8970SOL     OW28350   2.537   5.896   4.714  0.2969 -0.1381  0.1886
 8970SOL    HW128351   2.573   5.949   4.643  0.4764 -0.9996 -0.3767
 8970SOL    HW228352   2.610   5.886   4.775  1.2057 -2.1786 -1.1248
 8971SOL     OW28353   4.452   2.257   1.913 -0.8712  0.2040  0.2491
 8971SOL    HW128354   4.496   2.256   1.829 -1.5264  1.1624 -0.1299
 8971SOL    HW228355   4.397   2.180   1.913 -1.6360  0.7317 -0.6420
 8972SOL     OW28356   6.714   0.935   3.505  0.3688  0.1580 -0.0124
 8972SOL    HW128357   6.802   0.972   3.495  0.4015  0.8417  2.3817
 8972SOL    HW228358   6.728   0.852   3.551 -0.2457  0.4449  0.7087
 8973SOL     OW28359   7.820   2.207   0.280  0.3870 -0.3894  0.8383
 8973SOL    HW128360   7.825   2.300   0.258 -1.6057 -0.4553 -0.1130
 8973SOL    HW228361   7.749   2.202   0.344 -1.5060 -1.5147 -1.2055
 8974SOL     OW28362   5.785   1.814   0.705 -0.5912  0.4820  0.8801
 8974SOL    HW128363   5.718   1.850   0.764 -0.0274  1.4003  0.9705
 8974SOL    HW228364   5.862   1.868   0.720  0.3001 -0.7852  1.0312
 8975SOL     OW28365   4.566   6.542   9.283  0.8707  0.6730  0.5045
 8975SOL    HW128366   4.571   6.637   9.274 -0.3220  0.6608 -0.7377
 8975SOL    HW228367   4.473   6.522   9.278  1.0619 -0.5370  1.2328
 8976SOL     OW28368   2.110   1.853   4.343  0.7377 -0.1727  0.2072
 8976SOL    HW128369   2.147   1.764   4.343  0.8993 -0.1092  0.4615
 8976SOL    HW228370   2.091   1.870   4.436 -1.7130 -0.9305 -0.0961
 8977SOL     OW28371   2.820   4.914   4.269 -0.3549  0.9203  0.5063
 8977SOL    HW128372   2.790   4.839   4.321 -0.5661  1.6350  1.4408
 8977SOL    HW228373   2.910   4.892   4.246 -1.2914 -0.9529 -1.7795
 8978SOL     OW28374   5.896   3.920   6.233 -0.0525  0.3174 -0.1320
 8978SOL    HW128375   5.953   3.845   6.215 -0.0812  0.1002  0.6435
 8978SOL    HW228376   5.818   3.882   6.273 -0.7517  0.6160 -1.1520
 8979SOL     OW28377   1.325   2.999   9.573 -0.6143 -0.2325  0.0027
 8979SOL    HW128378   1.257   3.064   9.591 -0.0607  0.9529 -1.9083
 8979SOL    HW228379   1.314   2.979   9.480 -0.2250 -2.2749  0.3487
 8980SOL     OW28380   4.748   2.628  11.020 -0.1202  0.2721 -0.1763
 8980SOL    HW128381   4.820   2.616  10.957 -1.4367 -0.5660 -1.5917
 8980SOL    HW228382   4.734   2.541  11.057 -0.4769  0.4068  0.0079
 8981SOL     OW28383   1.024   3.122   6.342 -0.3226  0.6374 -0.1845
 8981SOL    HW128384   0.937   3.091   6.319 -0.1075 -0.0215 -0.1259
 8981SOL    HW228385   1.041   3.195   6.282 -0.0411 -0.6101 -1.6893
 8982SOL     OW28386   4.320   1.010   2.858  0.1185  0.5424  0.0398
 8982SOL    HW128387   4.298   1.014   2.765 -2.1318 -1.1754  0.4038
 8982SOL    HW228388   4.413   0.987   2.859 -0.1089 -0.7331 -1.8323
 8983SOL     OW28389   2.105   1.970   5.199 -0.0124 -0.0965  0.2422
 8983SOL    HW128390   2.111   2.055   5.243  0.4962 -0.4538  0.8878
 8983SOL    HW228391   2.022   1.933   5.229 -0.4021  0.3127 -0.3122
 8984SOL     OW28392   0.493   4.710   1.014 -0.1159 -0.1170  0.4068
 8984SOL    HW128393   0.497   4.746   1.103  0.3549  1.0204 -0.0624
 8984SOL    HW228394   0.517   4.618   1.025  0.6351  0.1760  1.3724
 8985SOL     OW28395   0.648   6.048  10.243  0.4105  0.2183  0.5505
 8985SOL    HW128396   0.651   6.122  10.304  0.1246  0.4431  0.2929
 8985SOL    HW228397   0.565   6.004  10.262 -0.3689  1.1229 -0.6420
 8986SOL     OW28398   4.725   4.492   2.247  0.2803  0.2746 -0.6783
 8986SOL    HW128399   4.744   4.452   2.332 -0.2253  0.2307 -0.5856
 8986SOL    HW228400   4.807   4.483   2.198  0.3400 -0.4000 -0.4717
 8987SOL     OW28401   7.671   0.065   9.023  0.7058 -0.4752  0.2576
 8987SOL    HW128402   7.643   0.155   9.041  1.9513 -0.2421  1.1768
 8987SOL    HW228403   7.597   0.011   9.051 -0.0928  0.2551 -0.3818
 8988SOL     OW28404   0.865   4.649   0.829  0.6981  0.3645  0.4305
 8988SOL    HW128405   0.788   4.645   0.771  0.9744 -1.0031  0.1108
 8988SOL    HW228406   0.832   4.689   0.909 -0.6353 -1.1071  0.6772
 8989SOL     OW28407   7.084   3.851   0.026 -0.6970  0.4478  0.1255
 8989SOL    HW128408   7.006   3.896  -0.006  0.9230  1.8875 -2.1234
 8989SOL    HW228409   7.108   3.898   0.105 -0.5641  1.8572 -0.7218
 8990SOL     OW28410   4.049   1.530   9.478 -0.5383  0.1576  0.0054
 8990SOL    HW128411   4.130   1.498   9.518 -0.4033  0.1860 -0.2438
 8990SOL    HW228412   4.076   1.560   9.391 -1.2435 -2.2188 -1.1134
 8991SOL     OW28413   4.937   0.025   1.570 -0.0838 -0.8105 -0.4175
 8991SOL    HW128414   4.872  -0.043   1.554 -0.5076 -0.1697 -1.5513
 8991SOL    HW228415   4.913   0.062   1.655 -2.6309  0.9052 -1.7495
 8992SOL     OW28416   7.347   6.780   3.010  1.0424  0.2275  0.7480
 8992SOL    HW128417   7.356   6.875   2.998 -1.4446  0.4241 -0.2102
 8992SOL    HW228418   7.381   6.764   3.098  1.5000  2.0059  0.9486
 8993SOL     OW28419   0.692   0.595   1.647 -0.3741  0.8930 -0.0966
 8993SOL    HW128420   0.680   0.501   1.634 -1.8887  1.1812 -1.0654
 8993SOL    HW228421   0.661   0.634   1.565  0.5335  2.2272  0.1687
 8994SOL     OW28422   5.151   2.127   3.692 -0.0133 -0.2966  0.1914
 8994SOL    HW128423   5.197   2.176   3.625  0.4702 -0.7699  0.1635
 8994SOL    HW228424   5.109   2.193   3.747  1.2793  0.2012  0.6259
 8995SOL     OW28425   2.151   3.784   7.075 -0.0800  0.1437  0.3063
 8995SOL    HW128426   2.088   3.756   7.140 -0.1041  0.1826  0.2991
 8995SOL    HW228427   2.234   3.743   7.103 -0.0903  0.1596  0.3597
 8996SOL     OW28428   2.270   4.036  12.299 -0.1228 -0.3329  1.0518
 8996SOL    HW128429   2.362   4.033  12.326  0.3812  2.7755  0.0965
 8996SOL    HW228430   2.225   4.081  12.371 -0.1581  1.3282  0.0509
 8997SOL     OW28431   0.558   6.998   8.406  0.3574 -0.6204 -0.2874
 8997SOL    HW128432   0.469   6.991   8.373  0.7889  0.3901 -1.8024
 8997SOL    HW228433   0.594   7.075   8.361  1.4309  0.0691  1.6283
 8998SOL     OW28434   4.350   5.579   3.886 -0.1973 -0.0021 -0.3076
 8998SOL    HW128435   4.272   5.631   3.868 -0.4733 -0.6060 -0.9050
 8998SOL    HW228436   4.363   5.528   3.806  0.3477 -0.4969  0.0911
 8999SOL     OW28437   7.469   2.988   8.211 -0.3573  0.5527 -0.5478
 8999SOL    HW128438   7.392   2.960   8.161 -0.3047 -0.9039  0.1386
 8999SOL    HW228439   7.474   2.926   8.285  1.5204  0.5301 -0.6318
 9000SOL     OW28440   7.571   7.828  11.746 -0.2037  0.0345 -0.3223
 9000SOL    HW128441   7.600   7.739  11.725 -0.4942  0.0030 -0.5879
 9000SOL    HW228442   7.652   7.878  11.754 -0.0740  0.3463 -2.7797
 9001SOL     OW28443   0.421   5.373   2.250  0.0683  0.3181 -0.6346
 9001SOL    HW128444   0.472   5.396   2.172  1.5128  1.8701  0.6863
 9001SOL    HW228445   0.453   5.286   2.274  2.2471  1.2689  0.1815
 9002SOL     OW28446   1.162   6.475   4.923  0.0121 -0.0680  0.7612
 9002SOL    HW128447   1.159   6.408   4.991 -0.8123  0.3841  1.1886
 9002SOL    HW228448   1.125   6.553   4.965  0.4439  0.4965  0.1027
 9003SOL     OW28449   6.364   2.200  12.218 -0.3820  0.2388  0.5065
 9003SOL    HW128450   6.278   2.160  12.205  1.3909 -3.1826 -2.3818
 9003SOL    HW228451   6.392   2.226  12.130  3.0545 -2.6014  0.5406
 9004SOL     OW28452   1.402   2.335   3.010 -0.1205 -0.7108 -0.1822
 9004SOL    HW128453   1.351   2.415   2.997  1.5223  0.1954 -1.4773
 9004SOL    HW228454   1.449   2.350   3.092 -0.3351 -0.6378 -0.0715
 9005SOL     OW28455   6.193   5.640   8.742  0.2588  0.0867  0.0067
 9005SOL    HW128456   6.149   5.565   8.781 -0.1396 -0.0532 -0.7018
 9005SOL    HW228457   6.275   5.605   8.708 -0.1854 -0.1591 -0.8398
 9006SOL     OW28458   4.906   6.406   9.716  0.5811  0.3165  0.4411
 9006SOL    HW128459   4.958   6.326   9.718  1.7269  1.0467  0.3481
 9006SOL    HW228460   4.959   6.471   9.761 -0.2143  1.1057  0.2725
 9007SOL     OW28461   0.350   2.160   5.285  0.2060 -0.5726  0.1826
 9007SOL    HW128462   0.376   2.074   5.253  1.1653 -1.2070  2.4578
 9007SOL    HW228463   0.430   2.213   5.283 -0.3699  0.3044 -1.1735
 9008SOL     OW28464   6.121   6.281   2.304 -0.3032  0.3796 -0.3406
 9008SOL    HW128465   6.085   6.342   2.368  0.5179  0.5677 -0.0421
 9008SOL    HW228466   6.180   6.226   2.354  0.6144  0.7494 -0.9802
 9009SOL     OW28467   5.834   6.416   9.447 -0.1122  0.1280  0.6492
 9009SOL    HW128468   5.908   6.361   9.421  0.3692  1.5226 -1.1553
 9009SOL    HW228469   5.758   6.375   9.403  0.2686  0.9217 -0.8215
 9010SOL     OW28470   6.217   5.886   8.840  0.1386  0.1733 -0.3526
 9010SOL    HW128471   6.191   5.803   8.800  0.0389  0.4649 -0.9162
 9010SOL    HW228472   6.157   5.897   8.914 -0.5335  0.2352 -0.8975
 9011SOL     OW28473   0.310   4.554   6.747  0.3761  0.4100 -0.1727
 9011SOL    HW128474   0.232   4.583   6.699  1.1888 -0.5128 -2.1554
 9011SOL    HW228475   0.274   4.499   6.818 -0.8011 -0.7104 -1.5538
 9012SOL     OW28476   2.582   2.126  10.244 -0.1624 -0.1333 -0.1530
 9012SOL    HW128477   2.644   2.158  10.309 -0.0552  1.8847 -1.1857
 9012SOL    HW228478   2.508   2.093  10.296  0.1934  0.8345  1.0161
 9013SOL     OW28479   3.212   3.150   1.782  0.2844 -0.1017 -0.2022
 9013SOL    HW128480   3.121   3.127   1.765 -0.2028  0.3176  1.5948
 9013SOL    HW228481   3.207   3.225   1.841  1.8196  0.6486 -0.9540
 9014SOL     OW28482   0.764   7.214   6.437  0.3304  0.2436 -0.5531
 9014SOL    HW128483   0.762   7.160   6.517  1.9843  1.1534  0.1447
 9014SOL    HW228484   0.772   7.150   6.366  0.5848 -0.5047  0.1314
 9015SOL     OW28485   2.592   5.876   5.597 -0.6100 -0.5041 -0.0543
 9015SOL    HW128486   2.581   5.895   5.504 -1.3688 -0.1443  0.0913
 9015SOL    HW228487   2.554   5.789   5.608 -0.3470 -0.6252 -0.1179
 9016SOL     OW28488   4.496   2.732  12.254  0.3574  0.2802 -0.3310
 9016SOL    HW128489   4.565   2.668  12.241  1.3323  1.1365  0.4425
 9016SOL    HW228490   4.493   2.746  12.348  1.5551  2.7820 -0.5760
 9017SOL     OW28491   7.086   6.075   3.398  0.1513 -0.1396 -0.2228
 9017SOL    HW128492   7.043   6.031   3.471  0.6541 -0.8379 -0.3374
 9017SOL    HW228493   7.020   6.076   3.328 -1.2060  2.6727  0.9512
 9018SOL     OW28494   6.702   6.691   5.658  1.0463 -0.4648 -0.7071
 9018SOL    HW128495   6.624   6.736   5.625  1.1410  0.8613  0.7853
 9018SOL    HW228496   6.671   6.641   5.733  1.3847 -1.1154 -0.9879
 9019SOL     OW28497   1.221   3.772  10.188 -0.2391 -0.5835  0.4605
 9019SOL    HW128498   1.216   3.820  10.270  0.8043  0.0714  0.1583
 9019SOL    HW228499   1.311   3.782  10.159 -1.0302  0.9058 -1.7747
 9020SOL     OW28500   2.278   6.406   6.129  0.6580  0.0524  0.3274
 9020SOL    HW128501   2.228   6.337   6.173  2.7339 -1.4401  0.5191
 9020SOL    HW228502   2.300   6.369   6.044 -0.5655  1.6416 -0.7186
 9021SOL     OW28503   1.473   0.578   0.416 -0.1988 -0.1600  0.1641
 9021SOL    HW128504   1.448   0.658   0.462 -0.8861  0.0612 -0.5600
 9021SOL    HW228505   1.439   0.507   0.470 -0.0441  0.0574  0.5467
 9022SOL     OW28506   3.677   6.242   7.734 -0.4787 -0.2150 -0.0049
 9022SOL    HW128507   3.670   6.269   7.642 -0.4370  0.1002  0.0834
 9022SOL    HW228508   3.635   6.156   7.737 -3.0147  0.9243  0.2074
 9023SOL     OW28509   3.977   5.324   4.244 -0.6698 -0.1004  0.1682
 9023SOL    HW128510   4.035   5.397   4.226 -0.7168 -0.2528 -0.6218
 9023SOL    HW228511   4.034   5.256   4.280 -0.4186 -0.1048 -0.2275
 9024SOL     OW28512   3.024   4.832   7.674  0.2657  0.9865 -0.0053
 9024SOL    HW128513   2.962   4.893   7.633 -0.5296  2.0198  2.5657
 9024SOL    HW228514   2.978   4.748   7.675  0.2138  0.9865 -0.9565
 9025SOL     OW28515   1.475   4.448   2.983  0.8509  0.0143  0.0867
 9025SOL    HW128516   1.544   4.383   2.994  0.7288 -0.2026 -0.3725
 9025SOL    HW228517   1.399   4.397   2.951  0.0784  0.0460  1.7804
 9026SOL     OW28518   6.671   7.208   3.459  0.0991  0.2289 -0.4562
 9026SOL    HW128519   6.618   7.287   3.446  0.4178  1.2663  3.2753
 9026SOL    HW228520   6.626   7.159   3.528  1.5307 -1.2841 -0.5213
 9027SOL     OW28521   4.352   1.851  11.936 -0.3748  0.0554  0.5005
 9027SOL    HW128522   4.334   1.886  11.849  1.0924  1.4080  0.6905
 9027SOL    HW228523   4.377   1.760  11.921  0.3410  0.4114 -0.5584
 9028SOL     OW28524   1.641   4.131   4.500 -0.3606  0.0507  0.0366
 9028SOL    HW128525   1.679   4.187   4.432  1.6687 -2.7730 -1.4161
 9028SOL    HW228526   1.684   4.158   4.581  0.6101  0.5531 -0.6278
 9029SOL     OW28527   0.937   7.322   7.395 -0.3127  0.3965 -0.6899
 9029SOL    HW128528   0.851   7.310   7.355 -1.0888 -0.5921  1.1848
 9029SOL    HW228529   0.925   7.393   7.458  0.2678  0.2929 -0.4535
 9030SOL     OW28530   2.241   2.299   6.101 -0.2604 -0.5732  0.3273
 9030SOL    HW128531   2.159   2.264   6.066 -0.6386 -1.4052  1.9539
 9030SOL    HW228532   2.306   2.279   6.034 -1.4858  0.8789 -1.4002
 9031SOL     OW28533   0.017   2.793  11.127  0.3157 -0.0478  0.1543
 9031SOL    HW128534  -0.051   2.847  11.086 -0.3386  0.6001  2.0023
 9031SOL    HW228535   0.099   2.829  11.093 -0.2072 -0.2091 -1.3641
 9032SOL     OW28536   4.871   7.040   4.629  0.0080 -0.1064  0.2570
 9032SOL    HW128537   4.885   7.099   4.555  0.2661 -2.7386 -1.9516
 9032SOL    HW228538   4.957   7.003   4.647  0.4275  1.9406  3.4155
 9033SOL     OW28539   5.606   2.732   5.028  0.1118  0.2236 -0.6712
 9033SOL    HW128540   5.661   2.657   5.006  1.5321  1.2399 -0.7883
 9033SOL    HW228541   5.520   2.711   4.994  0.7051 -0.9732 -1.4826
 9034SOL     OW28542   5.563   1.364   7.073  0.2161 -0.1085 -0.2224
 9034SOL    HW128543   5.604   1.364   7.159  1.2531  3.0148 -0.5619
 9034SOL    HW228544   5.469   1.368   7.091  0.3243 -1.3445  0.6985
 9035SOL     OW28545   5.157   6.037   2.830  0.0116  0.6594 -0.5572
 9035SOL    HW128546   5.161   6.036   2.734  0.6583 -0.7358 -0.5371
 9035SOL    HW228547   5.199   6.120   2.854 -0.2769  1.0874 -1.4755
 9036SOL     OW28548   1.806   3.393   4.823  0.1192  0.3351  0.0060
 9036SOL    HW128549   1.817   3.480   4.784  0.9422 -0.3909 -1.5005
 9036SOL    HW228550   1.824   3.333   4.750  5.5047 -1.2814  2.1850
 9037SOL     OW28551   1.530   6.261  10.962 -0.0920  0.2635  0.1938
 9037SOL    HW128552   1.490   6.325  11.020  1.5326 -1.0976  3.0223
 9037SOL    HW228553   1.575   6.199  11.020  2.2888 -0.8332 -2.5200
 9038SOL     OW28554   5.632   0.161   1.043 -0.2730 -0.0047  0.5470
 9038SOL    HW128555   5.625   0.096   0.973  1.1782  0.3809 -0.0033
 9038SOL    HW228556   5.591   0.239   1.007 -0.8506 -0.2340  0.7026
 9039SOL     OW28557   5.366   7.209   5.049  0.5303  0.5335 -0.4733
 9039SOL    HW128558   5.404   7.294   5.026  1.8886  0.2474  0.5767
 9039SOL    HW228559   5.369   7.159   4.967  2.6180  0.4728 -0.4094
 9040SOL     OW28560   1.772   3.941   1.694  0.2965  0.0440  0.3660
 9040SOL    HW128561   1.726   3.877   1.640 -1.0918  0.0279  1.5208
 9040SOL    HW228562   1.711   4.014   1.703  0.8973  0.4795  1.0765
 9041SOL     OW28563   1.406   3.846   9.182 -0.9932  0.3578 -0.1217
 9041SOL    HW128564   1.452   3.856   9.099 -1.2365  1.1573 -0.1711
 9041SOL    HW228565   1.468   3.876   9.248 -0.1484 -1.8928  0.1992
 9042SOL     OW28566   5.363   4.514   2.804  0.4072 -0.0354 -0.2866
 9042SOL    HW128567   5.361   4.576   2.877  0.4787 -1.4404  0.9606
 9042SOL    HW228568   5.274   4.481   2.798  0.7223 -1.0255  0.1847
 9043SOL     OW28569   0.631   5.754   1.838  0.3444  0.1081 -0.1525
 9043SOL    HW128570   0.626   5.758   1.743 -1.4849  2.9583 -0.0707
 9043SOL    HW228571   0.701   5.816   1.861  1.6678 -1.5153  0.3794
 9044SOL     OW28572   0.646   2.240  11.324  0.3649  0.0287 -0.1151
 9044SOL    HW128573   0.592   2.187  11.266 -0.9405 -0.3593  1.3762
 9044SOL    HW228574   0.732   2.199  11.321 -0.5366 -2.1183  0.7931
 9045SOL     OW28575   4.730   5.380   6.576 -0.0661  0.2754  0.2803
 9045SOL    HW128576   4.670   5.312   6.547  1.0582 -0.6383  0.0122
 9045SOL    HW228577   4.813   5.358   6.534  0.4140  1.6409  0.4400
 9046SOL     OW28578   1.098   5.528  11.956 -0.0469  0.8329 -0.3609
 9046SOL    HW128579   1.053   5.593  12.011 -0.7667  1.6888 -1.8802
 9046SOL    HW228580   1.145   5.581  11.891  1.0751 -0.1374 -0.3692
 9047SOL     OW28581   2.655   6.646   6.963  0.0468 -0.0881  0.1464
 9047SOL    HW128582   2.748   6.660   6.948 -0.0166 -0.6972 -0.8142
 9047SOL    HW228583   2.631   6.714   7.027  0.9173  0.7502 -0.3942
 9048SOL     OW28584   7.088   6.356   7.072  0.1402  0.0699 -0.2968
 9048SOL    HW128585   7.055   6.425   7.129  0.5337  1.1290 -1.3132
 9048SOL    HW228586   7.183   6.360   7.084  0.1429 -0.5899 -0.0506
 9049SOL     OW28587   0.421   2.014   4.472  0.1655  0.1725 -0.1878
 9049SOL    HW128588   0.508   1.976   4.480 -0.4558 -1.0277  1.5619
 9049SOL    HW228589   0.361   1.941   4.488 -1.1218  1.3271  0.5326
 9050SOL     OW28590   3.291   0.596   6.707  0.1354 -0.0081  0.8140
 9050SOL    HW128591   3.289   0.574   6.800 -1.1105  1.7651  1.2526
 9050SOL    HW228592   3.334   0.681   6.703  0.8269 -0.3833 -0.3322
 9051SOL     OW28593   2.180   0.062  10.955 -0.3272 -0.0386  0.6746
 9051SOL    HW128594   2.228   0.144  10.958 -0.8807  0.3902 -0.9032
 9051SOL    HW228595   2.156   0.052  10.863 -1.3251 -1.3519  1.0459
 9052SOL     OW28596   4.452   0.619   3.490  0.6479  0.1307 -0.3203
 9052SOL    HW128597   4.371   0.585   3.452  0.4916 -0.2614  0.3466
 9052SOL    HW228598   4.448   0.593   3.582  1.5218  0.1259 -0.2750
 9053SOL     OW28599   7.671   0.417   7.354 -0.2002 -0.1172 -0.3282
 9053SOL    HW128600   7.743   0.397   7.294  0.4272  0.9852  0.0332
 9053SOL    HW228601   7.645   0.332   7.389  0.6180 -0.5832 -0.8125
 9054SOL     OW28602   2.145   6.828  12.142  0.2973 -0.1852 -0.1627
 9054SOL    HW128603   2.219   6.769  12.150 -1.4362 -2.4118  0.2709
 9054SOL    HW228604   2.094   6.814  12.222 -0.6658  1.2035 -0.4918
 9055SOL     OW28605   1.346   7.060  10.560 -0.0682  0.2076  0.0502
 9055SOL    HW128606   1.434   7.025  10.575  1.7233  3.3001 -2.0612
 9055SOL    HW228607   1.292   7.020  10.628  3.1119 -1.2008  1.9703
 9056SOL     OW28608   0.649   1.686   5.401  0.4652 -0.3826 -0.4567
 9056SOL    HW128609   0.562   1.707   5.434 -0.1282  0.9914 -2.7237
 9056SOL    HW228610   0.654   1.590   5.405 -0.2807 -0.3892  1.6594
 9057SOL     OW28611   0.684   3.643   5.517 -0.1306 -0.3905 -0.1182
 9057SOL    HW128612   0.676   3.735   5.542 -1.2641 -0.5948  0.3314
 9057SOL    HW228613   0.778   3.628   5.510  0.0521  0.9426 -0.7475
 9058SOL     OW28614   7.388   3.282   9.957  0.0101  0.3637 -0.1117
 9058SOL    HW128615   7.456   3.215   9.954  0.2672  0.6406 -0.6091
 9058SOL    HW228616   7.413   3.345   9.889 -0.9331  0.2756 -0.5682
 9059SOL     OW28617   5.678   4.347   3.536  0.3423 -0.2673  0.2567
 9059SOL    HW128618   5.716   4.324   3.621 -0.1236  1.5973  1.0088
 9059SOL    HW228619   5.754   4.359   3.479  0.6921 -0.8289  0.5934
 9060SOL     OW28620   4.146   4.238   9.213  0.4058 -0.8114  0.1339
 9060SOL    HW128621   4.072   4.188   9.246 -0.0356 -0.0405  0.3466
 9060SOL    HW228622   4.217   4.175   9.204  0.0522 -1.3392  1.0137
 9061SOL     OW28623   4.206   5.342  10.528  0.3572 -0.0443  0.1537
 9061SOL    HW128624   4.187   5.433  10.505 -2.7969 -0.3142  1.2562
 9061SOL    HW228625   4.222   5.299  10.445 -2.7754  0.6156 -0.9073
 9062SOL     OW28626   4.101   2.689   4.464 -0.4718 -0.2908  0.2159
 9062SOL    HW128627   4.140   2.615   4.511  0.7467 -0.4675 -1.0034
 9062SOL    HW228628   4.066   2.650   4.384 -0.5492  0.3282 -0.0521
 9063SOL     OW28629   0.022   0.067   5.020 -0.5369  0.2853  0.0224
 9063SOL    HW128630   0.068   0.151   5.019 -0.7093  0.3964  0.8629
 9063SOL    HW228631   0.071   0.012   4.959  0.7271  0.3940  0.9002
 9064SOL     OW28632   6.426   4.148   2.231  0.0336 -0.4038  0.2912
 9064SOL    HW128633   6.434   4.237   2.265 -1.4031 -0.0264 -0.3316
 9064SOL    HW228634   6.416   4.159   2.137 -1.5643 -1.1354  0.3574
 9065SOL     OW28635   5.094   0.522  11.926 -0.1632  0.3159 -0.0183
 9065SOL    HW128636   5.126   0.590  11.867  1.0039 -1.1384 -1.1618
 9065SOL    HW228637   5.157   0.521  11.999  0.0466  0.2023 -0.2009
 9066SOL     OW28638   3.122   2.448  11.352 -0.0422  0.4913  0.2868
 9066SOL    HW128639   3.076   2.485  11.427  1.5460 -0.1890  1.6793
 9066SOL    HW228640   3.156   2.364  11.384  0.2073 -0.0848 -1.3884
 9067SOL     OW28641   0.566   3.096   8.964 -0.3588 -0.6141 -0.0373
 9067SOL    HW128642   0.483   3.137   8.939  0.0054 -0.8932 -1.7981
 9067SOL    HW228643   0.609   3.075   8.881  1.6632 -0.1150  0.8108
 9068SOL     OW28644   0.703   4.158   7.192  0.4702 -0.0479 -0.2337
 9068SOL    HW128645   0.658   4.239   7.213  1.4700 -0.3849  4.1076
 9068SOL    HW228646   0.775   4.185   7.135 -0.7497  1.6212 -1.0742
 9069SOL     OW28647   1.283   2.772   1.971 -0.2950  0.0838  0.1451
 9069SOL    HW128648   1.361   2.799   1.924 -0.0515  0.8373  0.9512
 9069SOL    HW228649   1.250   2.697   1.922  1.0213 -0.3478 -0.1149
 9070SOL     OW28650   4.351   1.824   4.164  0.3293 -0.4592  0.4406
 9070SOL    HW128651   4.287   1.775   4.113  1.2938 -0.2907 -0.9703
 9070SOL    HW228652   4.432   1.816   4.115  0.8136  1.4796  0.8645
 9071SOL     OW28653   3.154   6.834   7.956 -0.0741  0.1814  0.2337
 9071SOL    HW128654   3.232   6.796   7.914  0.9014  0.3534  1.8002
 9071SOL    HW228655   3.125   6.766   8.017  0.7449  1.2774  1.9098
 9072SOL     OW28656   4.447   2.931   7.908 -0.2078 -0.2726  0.2089
 9072SOL    HW128657   4.425   2.863   7.845 -0.9194 -1.0318  1.2428
 9072SOL    HW228658   4.495   2.885   7.977  0.2445  0.4744  0.4039
 9073SOL     OW28659   5.688   4.813   0.743  0.3618  0.1008  0.2837
 9073SOL    HW128660   5.712   4.831   0.652 -1.6943 -0.7241 -0.4975
 9073SOL    HW228661   5.741   4.738   0.768  0.4969 -0.0658 -0.4763
 9074SOL     OW28662   4.176   3.635   0.812  0.0854  0.2920 -0.2813
 9074SOL    HW128663   4.122   3.671   0.741 -0.5682 -0.0564  0.0280
 9074SOL    HW228664   4.210   3.553   0.776  0.2623  0.4248 -0.4157
 9075SOL     OW28665   2.049   3.993   7.842  0.3460 -0.2069 -0.0882
 9075SOL    HW128666   2.014   4.073   7.880 -1.2184 -1.0705  0.3375
 9075SOL    HW228667   1.998   3.980   7.762  1.2315 -0.2915 -0.6556
 9076SOL     OW28668   2.593   1.095   1.530 -0.3182 -0.4457 -0.2845
 9076SOL    HW128669   2.632   1.050   1.455  0.0091 -0.8163  0.1027
 9076SOL    HW228670   2.644   1.064   1.605 -0.0285  0.6424 -0.0217
 9077SOL     OW28671   7.421   0.403   5.987  0.1667  0.0853 -0.1217
 9077SOL    HW128672   7.398   0.313   5.964  0.0307  0.0945 -0.0234
 9077SOL    HW228673   7.403   0.454   5.908 -1.3664  0.3001  0.3222
 9078SOL     OW28674   0.446   6.739   4.750 -0.1383 -0.2086 -0.1117
 9078SOL    HW128675   0.467   6.660   4.800  0.7269 -0.3890 -0.7441
 9078SOL    HW228676   0.354   6.730   4.726 -0.9324  0.3946  2.3834
 9079SOL     OW28677   1.411   3.595   4.100 -0.2844  0.2251 -0.5769
 9079SOL    HW128678   1.442   3.653   4.170  0.5943  1.1464 -1.6955
 9079SOL    HW228679   1.465   3.516   4.109  0.5561  0.7500 -0.8243
 9080SOL     OW28680   6.904   6.683  12.203 -0.3681 -0.3357 -0.1312
 9080SOL    HW128681   6.845   6.729  12.263  0.3604  0.2763  0.1535
 9080SOL    HW228682   6.856   6.676  12.121 -1.5442 -1.5637  0.6319
 9081SOL     OW28683   5.116   5.627  11.574 -0.3630 -0.2295 -0.4783
 9081SOL    HW128684   5.052   5.636  11.644  0.1655  0.0981 -0.0252
 9081SOL    HW228685   5.075   5.569  11.510 -1.0237 -0.1809 -0.1012
 9082SOL     OW28686   5.101   1.242  11.720 -0.1349 -0.0347 -0.0253
 9082SOL    HW128687   5.098   1.174  11.651 -0.3773 -0.0271 -0.0230
 9082SOL    HW228688   5.101   1.324  11.672  1.1433 -0.0282 -0.0705
 9083SOL     OW28689   7.253   1.343   2.722  0.3242  0.2125  0.4472
 9083SOL    HW128690   7.161   1.356   2.747  0.3886  1.2708  0.1755
 9083SOL    HW228691   7.253   1.349   2.627  0.8323  1.3905  0.5059
 9084SOL     OW28692   4.691   4.201  11.155 -0.2867  0.4102  0.3399
 9084SOL    HW128693   4.686   4.149  11.074  0.1910  0.7651  0.0755
 9084SOL    HW228694   4.783   4.227  11.161 -0.5768  1.4748  0.3047
 9085SOL     OW28695   2.700   2.500   8.332 -0.2196  0.0650 -0.6249
 9085SOL    HW128696   2.783   2.494   8.378  0.1865 -0.8548 -1.4440
 9085SOL    HW228697   2.676   2.592   8.337 -0.1250  0.0171  1.2764
 9086SOL     OW28698   2.914   5.801  12.248  0.1721  0.0432  0.0786
 9086SOL    HW128699   3.007   5.785  12.229  0.7889  1.5167  1.5430
 9086SOL    HW228700   2.877   5.825  12.164  1.0174 -0.9566 -0.6109
 9087SOL     OW28701   0.634   1.763   0.766 -0.1103 -0.4857  0.0341
 9087SOL    HW128702   0.640   1.844   0.715  1.8185 -1.0214 -0.6940
 9087SOL    HW228703   0.718   1.757   0.811 -0.5399 -1.6804  0.7200
 9088SOL     OW28704   4.012   6.804   2.476  0.3436 -0.2738  0.3151
 9088SOL    HW128705   4.059   6.765   2.402  0.7218 -0.3211  0.5793
 9088SOL    HW228706   4.044   6.756   2.552  0.3215  0.1095  0.5657
 9089SOL     OW28707   3.509   5.499   3.808 -0.9832  0.3070 -0.2874
 9089SOL    HW128708   3.562   5.428   3.843 -1.7737 -0.4749 -0.6307
 9089SOL    HW228709   3.422   5.484   3.845 -1.0290  1.4514  0.1111
 9090SOL     OW28710   0.769   0.808   0.818 -0.1908  0.1381  0.4836
 9090SOL    HW128711   0.788   0.722   0.780  0.8218  0.4017  0.3668
 9090SOL    HW228712   0.787   0.870   0.747  1.1068  0.5893  1.1681
 9091SOL     OW28713   4.211   4.130   2.167 -0.4237 -0.5256  0.2366
 9091SOL    HW128714   4.221   4.211   2.217 -2.0291 -0.9682  1.3551
 9091SOL    HW228715   4.285   4.130   2.105  0.4068  1.0761  1.1750
 9092SOL     OW28716   7.010   6.609   9.071 -0.0173 -0.5081  0.3764
 9092SOL    HW128717   6.958   6.571   8.999  1.3713  0.0294 -0.9676
 9092SOL    HW228718   7.100   6.582   9.053  0.8744  2.3799 -0.0227
 9093SOL     OW28719   1.518   4.085   5.535 -0.4967  0.1107  0.2047
 9093SOL    HW128720   1.424   4.081   5.521 -0.5005  1.7023 -0.4879
 9093SOL    HW228721   1.528   4.130   5.619 -0.3669  0.2754  0.1037
 9094SOL     OW28722   7.027   4.374   7.569 -0.2188 -0.1567 -0.6592
 9094SOL    HW128723   7.062   4.388   7.657 -1.2931 -0.7250 -0.1231
 9094SOL    HW228724   7.075   4.436   7.514 -1.3931  2.1640  0.7645
 9095SOL     OW28725   1.366   2.926   8.559 -0.0459 -0.0225  0.1663
 9095SOL    HW128726   1.295   2.982   8.528 -1.9381 -1.7215  1.2485
 9095SOL    HW228727   1.359   2.929   8.654  1.6326  0.0933  0.3177
 9096SOL     OW28728   5.836   2.390  10.850 -0.2769 -0.2489  0.0978
 9096SOL    HW128729   5.930   2.375  10.841 -0.4513 -0.9984 -0.5913
 9096SOL    HW228730   5.829   2.476  10.891  0.6939  0.4023 -1.0452
 9097SOL     OW28731   0.586   3.529   6.734 -0.5032  0.3927  0.5115
 9097SOL    HW128732   0.649   3.600   6.742  0.6948 -0.2042 -2.3431
 9097SOL    HW228733   0.614   3.465   6.800  1.5087  0.4535 -0.2086
 9098SOL     OW28734   1.013   7.767   8.573  0.1635 -0.0942 -0.0580
 9098SOL    HW128735   1.086   7.763   8.511 -1.1113 -0.1457 -1.6040
 9098SOL    HW228736   1.014   7.682   8.617  0.3286 -0.5499 -0.9183
 9099SOL     OW28737   4.939   7.749   7.367  0.1232  0.4987  0.2895
 9099SOL    HW128738   4.899   7.663   7.352  2.4403 -0.5430 -0.2878
 9099SOL    HW228739   5.019   7.731   7.415  1.3433  2.1783 -0.9848
 9100SOL     OW28740   7.853   2.178   7.999 -0.0235  0.3390 -0.6374
 9100SOL    HW128741   7.817   2.241   8.061  1.5668  1.1105 -0.4468
 9100SOL    HW228742   7.882   2.105   8.052 -1.6273 -0.5024 -0.8353
 9101SOL     OW28743   5.327   5.388   0.842 -0.1301 -0.3676  0.1492
 9101SOL    HW128744   5.406   5.441   0.837  0.9194 -1.8341  0.4452
 9101SOL    HW228745   5.273   5.431   0.909 -0.0117  1.1602 -0.7076
 9102SOL     OW28746   1.518   1.731   3.760  0.3202  0.2194  0.3869
 9102SOL    HW128747   1.501   1.638   3.747  1.3672 -0.8695  4.8307
 9102SOL    HW228748   1.432   1.769   3.776  0.1093 -1.0803  3.0074
 9103SOL     OW28749   0.558   7.806   4.821  0.4895 -0.1696  0.5380
 9103SOL    HW128750   0.603   7.786   4.739 -1.0437 -0.4412 -0.2608
 9103SOL    HW228751   0.528   7.721   4.853 -0.9364  0.1812  0.1707
 9104SOL     OW28752   0.407   6.905   9.382 -0.0706  0.4313 -0.0045
 9104SOL    HW128753   0.455   6.936   9.458  1.1844  0.2870 -0.7058
 9104SOL    HW228754   0.423   6.971   9.314  2.4303 -1.4211 -1.4373
 9105SOL     OW28755   7.077   1.159   3.857  0.6700  0.3713  0.1623
 9105SOL    HW128756   6.983   1.141   3.862  0.5883  0.6737 -0.2385
 9105SOL    HW228757   7.095   1.216   3.932  0.6096 -0.0057  0.4658
 9106SOL     OW28758   2.982   6.161   0.403  0.6309 -0.2622 -0.2924
 9106SOL    HW128759   2.924   6.087   0.415  0.7137 -0.1866  0.6654
 9106SOL    HW228760   2.987   6.202   0.489  0.1821  1.1575 -0.9061
 9107SOL     OW28761   5.513   1.431   0.677 -0.0683  0.1278  0.1424
 9107SOL    HW128762   5.478   1.520   0.681 -0.7916 -0.2068  2.3066
 9107SOL    HW228763   5.599   1.437   0.718 -0.2429 -0.2336  0.5644
 9108SOL     OW28764   5.003   5.456   6.202  0.1667 -0.0364  0.0166
 9108SOL    HW128765   4.958   5.488   6.124 -1.2064 -0.1282  0.7343
 9108SOL    HW228766   4.939   5.398   6.244  1.6568 -1.6648  0.1099
 9109SOL     OW28767   1.587   2.142   0.108  0.0075  0.1093  0.2814
 9109SOL    HW128768   1.613   2.095   0.187 -0.6589  0.1247  0.5178
 9109SOL    HW228769   1.507   2.097   0.078 -0.9204  1.3531  0.7825
 9110SOL     OW28770   3.588   7.738   6.273  0.1105 -0.1035 -0.1138
 9110SOL    HW128771   3.604   7.685   6.194 -2.3745  0.5240 -1.1302
 9110SOL    HW228772   3.500   7.712   6.301 -0.2003  1.7597  0.7542
 9111SOL     OW28773   6.483   7.118   7.692 -0.0668  0.2596  0.3098
 9111SOL    HW128774   6.450   7.124   7.602  2.9603 -1.2476 -1.0533
 9111SOL    HW228775   6.577   7.102   7.682  0.2571 -0.8189  3.7691
 9112SOL     OW28776   7.401   5.891   2.700 -0.1686 -0.2090  0.0922
 9112SOL    HW128777   7.489   5.883   2.737  0.2169  0.0523 -0.7336
 9112SOL    HW228778   7.369   5.802   2.694 -0.1424 -0.2709  0.8227
 9113SOL     OW28779   2.073   7.829   2.708  0.2678  0.1566  0.3767
 9113SOL    HW128780   2.032   7.760   2.656 -0.5949 -0.5861  1.9397
 9113SOL    HW228781   2.019   7.834   2.787  0.5154  2.4054  0.4700
 9114SOL     OW28782   3.272   2.650   1.616  0.0134 -0.2661  0.9214
 9114SOL    HW128783   3.315   2.594   1.681  0.3690  0.5553  1.4040
 9114SOL    HW228784   3.273   2.737   1.654 -0.6244  0.0634  0.2163
 9115SOL     OW28785   3.154   3.013   8.182 -0.0918  0.0112  0.3643
 9115SOL    HW128786   3.094   3.034   8.254  0.0532 -0.9853  0.7967
 9115SOL    HW228787   3.115   3.055   8.105 -1.2813 -0.5006  0.6649
 9116SOL     OW28788   2.281   6.789   0.982  0.0385 -0.4873  0.3417
 9116SOL    HW128789   2.261   6.752   0.896 -1.5199 -0.4777  0.6868
 9116SOL    HW228790   2.377   6.786   0.987  0.4158  1.9621 -2.5052
 9117SOL     OW28791   5.979   1.164   2.296 -0.0983  0.6688  0.6443
 9117SOL    HW128792   6.068   1.128   2.291 -0.0672  0.6647  1.1619
 9117SOL    HW228793   5.979   1.237   2.234  1.1722  2.5542  2.7158
 9118SOL     OW28794   7.043   5.387   7.140  0.2877  0.3922 -0.4522
 9118SOL    HW128795   7.134   5.404   7.162  0.0189 -1.9540  3.5471
 9118SOL    HW228796   7.039   5.292   7.126 -1.5976  0.2902  0.3294
 9119SOL     OW28797   4.649   0.972   5.305 -0.5710 -0.2013 -0.1246
 9119SOL    HW128798   4.579   0.906   5.310 -0.7053 -0.0417  0.1240
 9119SOL    HW228799   4.702   0.957   5.382 -0.8382  0.2432  0.1527
 9120SOL     OW28800   4.271   7.071   5.293 -0.3200 -0.1030  0.8105
 9120SOL    HW128801   4.223   7.038   5.217  2.4925  1.8628 -2.0849
 9120SOL    HW228802   4.244   7.163   5.300  1.2087  0.3830  0.6160
 9121SOL     OW28803   1.839   5.787   6.969 -0.0281 -0.5764 -0.1776
 9121SOL    HW128804   1.800   5.873   6.988  2.1445  0.3180  0.6573
 9121SOL    HW228805   1.799   5.728   7.032  0.0600  0.3346  0.7683
 9122SOL     OW28806   1.233   4.080   9.122 -0.0010  0.6677  0.0853
 9122SOL    HW128807   1.253   4.118   9.207  3.1955  2.3873 -1.2558
 9122SOL    HW228808   1.227   3.986   9.138 -1.1981  1.0640  2.4229
 9123SOL     OW28809   7.508   6.825   4.456  0.2852 -0.3335  0.2723
 9123SOL    HW128810   7.472   6.876   4.384 -0.3646 -0.9052  0.1796
 9123SOL    HW228811   7.554   6.753   4.414 -0.0378 -0.6310  0.4192
 9124SOL     OW28812   3.287   2.070   5.798  0.0553 -0.2938 -0.6036
 9124SOL    HW128813   3.349   2.130   5.757  0.1513  1.4813  1.9032
 9124SOL    HW228814   3.225   2.047   5.729  0.2214  2.4338 -1.7561
 9125SOL     OW28815   3.802   5.155   3.673  0.5723 -0.2420  0.0813
 9125SOL    HW128816   3.863   5.187   3.739  0.0395 -0.5239  0.7274
 9125SOL    HW228817   3.742   5.099   3.722 -0.4504  0.3577 -0.4567
 9126SOL     OW28818   2.434   4.992   5.096  0.7019  0.0810  0.1854
 9126SOL    HW128819   2.368   5.061   5.088  0.5654 -0.2012 -1.3247
 9126SOL    HW228820   2.518   5.037   5.089  0.6451  0.2271  0.4121
 9127SOL     OW28821   1.367   1.429  11.384  0.1053  0.6788  0.0859
 9127SOL    HW128822   1.272   1.428  11.369  0.1255  0.6127 -0.0460
 9127SOL    HW228823   1.380   1.365  11.454 -0.2823  2.9123  2.2960
 9128SOL     OW28824   6.203   3.786   1.706 -0.4506 -0.6571 -0.4497
 9128SOL    HW128825   6.248   3.788   1.790  0.2089  0.1320 -0.8048
 9128SOL    HW228826   6.167   3.874   1.696 -0.9285 -0.8817 -0.7850
 9129SOL     OW28827   7.574   6.190   6.505 -0.1886 -0.3965  0.0552
 9129SOL    HW128828   7.558   6.221   6.416 -0.0620 -0.0562  0.1513
 9129SOL    HW228829   7.669   6.184   6.511 -0.2197 -1.5210 -0.2076
 9130SOL     OW28830   2.403   5.847   1.150 -0.2875 -0.7246 -0.4852
 9130SOL    HW128831   2.373   5.938   1.155  2.4477  0.1749  1.7933
 9130SOL    HW228832   2.399   5.816   1.240  1.3820 -1.9405 -0.7899
 9131SOL     OW28833   5.380   1.774  10.010 -0.1020  0.0542 -0.7589
 9131SOL    HW128834   5.401   1.707   9.944  0.5148 -1.1135  0.5591
 9131SOL    HW228835   5.465   1.809  10.036 -0.4054  1.1340 -1.1923
 9132SOL     OW28836   4.050   0.956   2.877  0.3343  0.0160 -0.6045
 9132SOL    HW128837   4.025   1.039   2.837  1.0417  1.0027  0.9070
 9132SOL    HW228838   4.143   0.967   2.899 -0.2002 -0.1137  2.0162
 9133SOL     OW28839   7.173   1.508   4.805  0.0563 -0.0423 -0.2628
 9133SOL    HW128840   7.227   1.455   4.863 -0.9233  0.7743  1.4739
 9133SOL    HW228841   7.083   1.484   4.827 -0.3528 -0.2837 -2.0413
 9134SOL     OW28842   5.455   5.787   4.264  0.3001  0.4696 -0.0239
 9134SOL    HW128843   5.416   5.820   4.345  0.2560  0.9264 -0.2232
 9134SOL    HW228844   5.418   5.700   4.253  0.5152  0.2990  0.5863
 9135SOL     OW28845   6.835   0.400   5.885 -0.5636  0.4224 -0.0744
 9135SOL    HW128846   6.788   0.483   5.894  2.6377  2.5937 -1.6454
 9135SOL    HW228847   6.881   0.389   5.969 -0.9868  0.1934  0.1331
 9136SOL     OW28848   3.745   1.175   3.538  0.0378  0.4615  0.3578
 9136SOL    HW128849   3.657   1.149   3.509  0.4652  1.1351 -1.7741
 9136SOL    HW228850   3.776   1.102   3.591 -1.1767 -0.5499 -0.2682
 9137SOL     OW28851   4.800   0.753   1.602 -0.1083 -0.6764  0.1282
 9137SOL    HW128852   4.806   0.848   1.594 -0.4337 -0.5227  1.3902
 9137SOL    HW228853   4.708   0.733   1.581 -0.0282 -0.7224 -0.1847
 9138SOL     OW28854   0.823   6.160  10.781 -0.5111  0.1207 -0.2460
 9138SOL    HW128855   0.898   6.100  10.773 -1.8086 -1.5906 -0.1438
 9138SOL    HW228856   0.824   6.211  10.700 -1.4200 -2.5401 -2.0581
 9139SOL     OW28857   2.028   7.077   2.232 -0.0515  0.3031 -0.8146
 9139SOL    HW128858   1.982   7.063   2.150  0.1776  0.0138 -0.8947
 9139SOL    HW228859   2.106   7.127   2.207 -0.1366  0.4811 -0.7290
 9140SOL     OW28860   4.667   5.359   3.176  0.3211 -0.1774  0.2149
 9140SOL    HW128861   4.622   5.402   3.249  0.3553 -1.3826  0.9573
 9140SOL    HW228862   4.723   5.294   3.217  0.7719 -0.4876 -0.8664
 9141SOL     OW28863   3.484   6.813   8.605 -0.1936  0.1009  0.2634
 9141SOL    HW128864   3.401   6.838   8.645 -0.1992  0.0543  0.2818
 9141SOL    HW228865   3.509   6.733   8.651 -0.0809  0.1784  0.3378
 9142SOL     OW28866   2.421   2.110   9.501 -0.1602  0.0692  0.6432
 9142SOL    HW128867   2.331   2.076   9.493 -0.2304  0.5115 -0.9221
 9142SOL    HW228868   2.413   2.186   9.559 -0.9223  0.4496  0.0633
 9143SOL     OW28869   7.077   0.753   8.648  0.7973 -0.0583 -0.0156
 9143SOL    HW128870   7.004   0.706   8.608 -0.0825  1.1392  0.0981
 9143SOL    HW228871   7.088   0.831   8.593  2.1526 -0.3346 -0.1580
 9144SOL     OW28872   2.641   6.149   4.818 -0.0317 -0.0412 -0.2099
 9144SOL    HW128873   2.609   6.090   4.749  2.6762 -0.0481 -1.5851
 9144SOL    HW228874   2.593   6.230   4.804  1.7982  0.6556 -3.5558
 9145SOL     OW28875   1.574   2.570   2.865  0.5127  0.6544  0.6887
 9145SOL    HW128876   1.600   2.600   2.952  0.6962  0.1238  0.8208
 9145SOL    HW228877   1.609   2.481   2.859 -0.3581  0.3159  0.4635
 9146SOL     OW28878   2.161   7.272   1.483 -0.1115 -0.8039 -0.0436
 9146SOL    HW128879   2.163   7.237   1.394  0.2474 -0.3763 -0.2124
 9146SOL    HW228880   2.240   7.327   1.488 -0.9815  0.4918 -0.0123
 9147SOL     OW28881   6.931   3.853   4.413 -0.6285  0.3151  0.2827
 9147SOL    HW128882   6.976   3.803   4.481 -0.0003 -0.5663 -0.7430
 9147SOL    HW228883   6.840   3.854   4.441 -1.0186 -2.8918 -0.4258
 9148SOL     OW28884   6.499   4.820  10.606  0.0284  0.8287 -0.3728
 9148SOL    HW128885   6.521   4.731  10.636  0.4237  1.3721  1.0480
 9148SOL    HW228886   6.506   4.874  10.685 -3.3958  1.6104 -0.4603
 9149SOL     OW28887   7.202   0.559   8.319  0.2824  0.3658 -0.3175
 9149SOL    HW128888   7.283   0.523   8.354 -0.2309  0.1245  0.6540
 9149SOL    HW228889   7.218   0.653   8.312  1.7712  0.0016 -3.2427
 9150SOL     OW28890   5.883   3.950  11.843 -0.5718 -0.8527 -0.7234
 9150SOL    HW128891   5.971   3.939  11.807 -0.7677 -2.6501 -0.7275
 9150SOL    HW228892   5.864   3.867  11.886 -3.0234 -1.2580 -2.4094
 9151SOL     OW28893   3.363   1.948   0.609 -0.7148 -0.3260 -0.1283
 9151SOL    HW128894   3.342   1.855   0.607 -0.6828 -0.3286 -1.1354
 9151SOL    HW228895   3.290   1.988   0.657  0.1760 -1.0556  1.9512
 9152SOL     OW28896   7.179   3.703   1.660 -0.4710 -0.5336  0.3821
 9152SOL    HW128897   7.177   3.719   1.754  2.3547  1.2439  0.2679
 9152SOL    HW228898   7.163   3.609   1.651  1.2624 -1.1632  2.8460
 9153SOL     OW28899   0.609   7.309   1.492  0.0996  0.1276 -1.1920
 9153SOL    HW128900   0.670   7.238   1.471 -0.6293 -1.1047  0.6533
 9153SOL    HW228901   0.663   7.377   1.532  0.3512 -0.7523 -0.0116
 9154SOL     OW28902   2.675   4.903   6.043 -0.2146 -0.8459  0.0097
 9154SOL    HW128903   2.670   4.914   5.948 -0.5023 -0.5837  0.0567
 9154SOL    HW228904   2.731   4.826   6.055 -2.0710 -2.3123 -0.4334
 9155SOL     OW28905   1.823   5.397   9.387  0.4899 -0.1439  0.0644
 9155SOL    HW128906   1.788   5.429   9.471  1.5914 -0.7910  0.7963
 9155SOL    HW228907   1.791   5.460   9.322 -1.2197 -0.1911  0.8202
 9156SOL     OW28908   4.042   7.523   7.282  0.7925  0.6281 -0.0718
 9156SOL    HW128909   4.117   7.468   7.302  0.8285 -0.2914 -2.4729
 9156SOL    HW228910   3.972   7.489   7.339  1.2302 -0.9141 -0.4138
 9157SOL     OW28911   6.578   6.571   9.909 -0.3628  0.4547  0.2434
 9157SOL    HW128912   6.604   6.661   9.925 -0.8420  0.3173  1.9932
 9157SOL    HW228913   6.484   6.570   9.925 -0.6946 -0.0136 -1.5041
 9158SOL     OW28914   4.007   3.920   4.570  0.3060 -0.3063  0.0483
 9158SOL    HW128915   3.930   3.950   4.522 -0.3014 -0.8461  0.6662
 9158SOL    HW228916   4.064   3.997   4.575  1.3687 -0.7140 -3.3427
 9159SOL     OW28917   0.475   2.914   5.132 -0.0133  0.2445 -0.4367
 9159SOL    HW128918   0.438   2.845   5.077  0.9467  1.1510 -2.3021
 9159SOL    HW228919   0.560   2.879   5.159  0.0741  0.3308 -0.6031
 9160SOL     OW28920   3.229   0.438   4.227  0.1273  0.0276  0.1873
 9160SOL    HW128921   3.274   0.499   4.286 -0.5191 -1.2490  2.0987
 9160SOL    HW228922   3.137   0.466   4.230  0.1662  0.2713 -0.6598
 9161SOL     OW28923   6.546   4.085   9.222 -0.2053  0.5163  0.6164
 9161SOL    HW128924   6.596   4.082   9.303  0.6985 -0.4101  0.0560
 9161SOL    HW228925   6.517   3.994   9.209  0.4309  0.4467 -0.5350
 9162SOL     OW28926   1.735   6.590  10.409 -0.3099 -0.5787  0.5522
 9162SOL    HW128927   1.670   6.637  10.357  0.0007  0.1358  0.8001
 9162SOL    HW228928   1.816   6.596  10.357 -0.2376 -0.7195  0.6499
 9163SOL     OW28929   4.829   4.138   2.607  0.3462 -0.0993 -0.2126
 9163SOL    HW128930   4.845   4.183   2.690  0.7320  0.9360 -0.8312
 9163SOL    HW228931   4.910   4.091   2.589  1.1282  1.5168 -1.1094
 9164SOL     OW28932   5.265   1.313   0.766 -0.5422  0.1534  0.3702
 9164SOL    HW128933   5.192   1.375   0.753 -0.3051  0.3032 -0.3130
 9164SOL    HW228934   5.343   1.364   0.745 -0.3802 -0.5061 -0.6685
 9165SOL     OW28935   0.189   4.071   4.038 -0.0713 -0.3514  0.0324
 9165SOL    HW128936   0.113   4.075   3.979  0.2043  2.3596 -0.2847
 9165SOL    HW228937   0.205   4.162   4.062  1.9231 -1.0511  1.6419
 9166SOL     OW28938   2.361   3.417   3.054  0.1896 -0.2725 -0.2743
 9166SOL    HW128939   2.388   3.468   3.131 -1.7323  0.5539 -0.0949
 9166SOL    HW228940   2.373   3.325   3.081  1.7990  0.0164  0.1130
 9167SOL     OW28941   7.904   6.056   8.255 -0.2746  0.0578 -0.4889
 9167SOL    HW128942   7.947   5.985   8.302  0.8601  0.2137 -1.2549
 9167SOL    HW228943   7.827   6.077   8.309  0.0118 -0.9478  0.3493
 9168SOL     OW28944   1.703   0.245   6.984  0.6344 -0.4235  0.0157
 9168SOL    HW128945   1.641   0.311   7.014  1.1179 -0.2413  0.6595
 9168SOL    HW228946   1.669   0.163   7.019  0.6391 -0.3537  0.1868
 9169SOL     OW28947   5.333   7.139   7.609  0.0739  0.1705  0.2729
 9169SOL    HW128948   5.251   7.186   7.619 -0.1572  0.0181 -0.7427
 9169SOL    HW228949   5.384   7.192   7.547  0.7849  0.3147  0.9610
 9170SOL     OW28950   2.985   2.574   8.149  0.1518 -0.3655 -0.1048
 9170SOL    HW128951   2.981   2.600   8.241  0.8132 -4.1915  1.2055
 9170SOL    HW228952   2.894   2.553   8.126 -0.0130  0.5879 -0.3658
 9171SOL     OW28953   3.429   2.735  12.010 -0.2469 -0.3803 -0.3661
 9171SOL    HW128954   3.373   2.805  12.044  2.6630  0.9558  2.1350
 9171SOL    HW228955   3.381   2.654  12.031 -1.5537  0.6860  1.0389
 9172SOL     OW28956   1.449   3.578   6.045  0.2929  0.3507 -0.1186
 9172SOL    HW128957   1.372   3.521   6.048  0.6061 -0.0522  0.3130
 9172SOL    HW228958   1.516   3.530   6.093  0.1763  1.6531  1.4511
 9173SOL     OW28959   5.073   6.614  12.000 -0.5350  0.3226 -0.1369
 9173SOL    HW128960   5.106   6.632  11.912 -0.5300  2.4578  0.2440
 9173SOL    HW228961   4.982   6.646  11.997 -0.8588 -0.5387  0.3556
 9174SOL     OW28962   2.071   7.558   6.989  0.0945  0.2998  0.0613
 9174SOL    HW128963   2.044   7.477   7.033  0.8369  0.2766  0.4927
 9174SOL    HW228964   2.094   7.530   6.900  3.6426 -0.6567  1.1200
 9175SOL     OW28965   5.463   1.980   4.526 -0.1555  0.4009 -0.0242
 9175SOL    HW128966   5.409   1.984   4.448  0.4211  1.1914 -0.3964
 9175SOL    HW228967   5.444   1.894   4.564 -0.1802 -0.1462 -1.2223
 9176SOL     OW28968   5.696   6.178   3.900  0.0668 -0.5161 -0.5003
 9176SOL    HW128969   5.728   6.267   3.886 -0.6057 -0.3209 -0.8029
 9176SOL    HW228970   5.673   6.175   3.993 -0.3894 -0.2195 -0.6046
 9177SOL     OW28971   4.336   5.551   0.387 -0.4925 -0.1900 -0.4860
 9177SOL    HW128972   4.285   5.502   0.452  0.0915 -1.5477 -1.0038
 9177SOL    HW228973   4.351   5.636   0.427 -0.5154 -0.8491  0.9877
 9178SOL     OW28974   1.599   0.757   6.231 -0.4257  0.6348 -0.1974
 9178SOL    HW128975   1.660   0.826   6.207 -0.2358  0.9514  1.0988
 9178SOL    HW228976   1.653   0.690   6.273 -0.6966 -0.0216 -0.8753
 9179SOL     OW28977   0.192   1.220  10.169 -0.7133  0.0728  0.6246
 9179SOL    HW128978   0.127   1.244  10.103 -2.2994 -1.3961  1.5944
 9179SOL    HW228979   0.152   1.244  10.252 -0.3054 -1.4286  1.2769
 9180SOL     OW28980   7.888   3.355  12.022  0.1478 -0.3259 -0.0120
 9180SOL    HW128981   7.963   3.314  11.980  0.2202  0.4149 -0.6226
 9180SOL    HW228982   7.828   3.374  11.950 -0.1867  0.0035  0.3509
 9181SOL     OW28983   4.260   2.404   4.121 -0.0040  0.0404  0.4239
 9181SOL    HW128984   4.260   2.402   4.025  2.1441 -0.5230  0.3889
 9181SOL    HW228985   4.290   2.317   4.147  0.8626  0.6585  1.5723
 9182SOL     OW28986   0.379   7.155   6.412  0.4628 -0.1853 -0.4618
 9182SOL    HW128987   0.362   7.127   6.322  0.0206  0.1494 -0.4864
 9182SOL    HW228988   0.351   7.246   6.415  0.0814 -0.3123  0.1169
 9183SOL     OW28989   0.888   0.613   4.451 -0.4985 -0.6038 -0.0098
 9183SOL    HW128990   0.892   0.678   4.521 -1.7762 -0.1104 -0.3575
 9183SOL    HW228991   0.916   0.660   4.373 -1.0993 -0.5549 -0.1999
 9184SOL     OW28992   5.348   6.470  10.907 -0.0332 -0.1072  0.0580
 9184SOL    HW128993   5.406   6.411  10.956 -0.6852  0.2350  1.2986
 9184SOL    HW228994   5.408   6.525  10.856  0.6275 -1.1335 -0.3017
 9185SOL     OW28995   6.200   4.728   1.106 -0.1023  0.1708 -0.8072
 9185SOL    HW128996   6.253   4.769   1.038 -0.3942  1.1494 -0.4642
 9185SOL    HW228997   6.127   4.789   1.120  0.1517  0.1919  0.6472
 9186SOL     OW28998   2.903   4.794  10.685 -0.3419 -0.3307  0.0463
 9186SOL    HW128999   2.895   4.886  10.659 -0.4202 -0.0485  1.0315
 9186SOL    HW229000   2.997   4.778  10.683 -0.3832 -0.4938 -0.9868
 9187SOL     OW29001   2.519   3.174   8.759  0.1310 -0.3056 -0.1082
 9187SOL    HW129002   2.440   3.213   8.720 -0.4377 -1.4610 -0.1636
 9187SOL    HW229003   2.492   3.150   8.848 -0.7444 -3.7822 -1.1197
 9188SOL     OW29004   3.643   2.255   1.509 -0.1894  0.3297  0.1066
 9188SOL    HW129005   3.565   2.309   1.498 -0.9093 -0.8473 -0.8374
 9188SOL    HW229006   3.631   2.181   1.449  3.1594  1.7203 -2.6533
 9189SOL     OW29007   4.808   2.697   5.681 -0.3185 -0.2219 -0.3431
 9189SOL    HW129008   4.809   2.658   5.593  0.8690 -1.3078  0.1077
 9189SOL    HW229009   4.729   2.750   5.683 -1.3884 -1.6738 -1.4421
 9190SOL     OW29010   5.858   3.313   9.238  0.2205  0.3224  0.4444
 9190SOL    HW129011   5.866   3.233   9.186  0.4216 -0.3550  1.4925
 9190SOL    HW229012   5.908   3.378   9.189  1.3480 -0.5850  0.3600
 9191SOL     OW29013   4.706   5.005   8.713 -0.2676 -0.2537  0.3861
 9191SOL    HW129014   4.662   4.996   8.628 -1.9256  0.5978  1.0951
 9191SOL    HW229015   4.639   4.983   8.777  1.4451 -2.6454  1.5095
 9192SOL     OW29016   2.220   2.750  10.737 -0.3232  0.0460  0.0795
 9192SOL    HW129017   2.224   2.840  10.770 -2.5452 -0.0797  0.8915
 9192SOL    HW229018   2.220   2.696  10.816 -1.7404 -0.4836 -0.2557
 9193SOL     OW29019   2.127   4.645   1.229  0.6991 -0.4136 -0.0824
 9193SOL    HW129020   2.172   4.663   1.146 -1.2103  1.3789 -0.7923
 9193SOL    HW229021   2.113   4.731   1.268 -0.8783 -1.0240  0.7598
 9194SOL     OW29022   0.459   2.854   5.529 -0.4919  0.5558  0.0157
 9194SOL    HW129023   0.369   2.878   5.508  0.1649  1.2597 -2.2499
 9194SOL    HW229024   0.474   2.771   5.483  0.3788  1.0747 -0.6697
 9195SOL     OW29025   7.257   6.461   4.847  0.0778 -0.2415 -0.0707
 9195SOL    HW129026   7.166   6.480   4.869 -0.6684 -2.7294 -0.6875
 9195SOL    HW229027   7.257   6.452   4.752  0.9146 -0.5621 -0.0443
 9196SOL     OW29028   4.897   6.517   6.307  0.3003 -0.6288 -0.3598
 9196SOL    HW129029   4.897   6.496   6.214  0.9607 -1.4469 -0.1841
 9196SOL    HW229030   4.810   6.492   6.338 -0.5574  1.2514 -1.0803
 9197SOL     OW29031   1.564   2.381   4.519  0.5886  0.7744  0.1133
 9197SOL    HW129032   1.590   2.327   4.444  0.9353  0.2489  0.5983
 9197SOL    HW229033   1.471   2.364   4.531  1.3474 -2.8896  2.6673
 9198SOL     OW29034   6.243   0.760   7.462  0.4117 -0.9649 -0.2553
 9198SOL    HW129035   6.187   0.837   7.465 -1.4799 -2.2632 -0.1961
 9198SOL    HW229036   6.250   0.738   7.369  2.9080  0.5372 -0.5250
 9199SOL     OW29037   4.866   6.665  11.096  0.6688 -0.2961  0.2961
 9199SOL    HW129038   4.891   6.633  11.009 -0.2338 -1.0113  0.2790
 9199SOL    HW229039   4.837   6.755  11.081  2.5116  0.3239  0.2156
 9200SOL     OW29040   3.627   1.696   0.699 -0.1852  0.2643 -0.2130
 9200SOL    HW129041   3.655   1.752   0.627  0.7996  1.0791  0.7604
 9200SOL    HW229042   3.650   1.746   0.778 -0.3000 -1.0431  0.6745
 9201SOL     OW29043   4.577   6.931   6.353  0.9181 -0.4477 -0.0080
 9201SOL    HW129044   4.569   6.837   6.363 -0.8451 -0.3885 -0.6263
 9201SOL    HW229045   4.570   6.947   6.259  3.1309  0.1794 -0.1352
 9202SOL     OW29046   3.995   6.457   8.219  0.4550  0.3578  0.0397
 9202SOL    HW129047   3.918   6.510   8.199  0.7132  0.8982  0.4665
 9202SOL    HW229048   4.059   6.519   8.253  1.3516  0.0238 -1.0042
 9203SOL     OW29049   1.287   2.471   7.385  0.6885 -0.0804 -0.1681
 9203SOL    HW129050   1.222   2.534   7.415  2.8964  1.9500  0.6164
 9203SOL    HW229051   1.247   2.385   7.403 -1.9963  1.0420 -0.3638
 9204SOL     OW29052   2.541   3.492   8.912  0.2260  0.0438 -0.2319
 9204SOL    HW129053   2.491   3.552   8.855  0.4533  1.4519  0.9895
 9204SOL    HW229054   2.631   3.502   8.883  0.1961 -0.1386 -0.3919
 9205SOL     OW29055   4.313   5.350   9.951 -0.2541  0.6023 -0.0083
 9205SOL    HW129056   4.364   5.288   9.899 -1.7418  1.2020 -2.3910
 9205SOL    HW229057   4.260   5.398   9.886 -2.5721  1.1615  2.1065
 9206SOL     OW29058   3.625   0.137   9.015 -0.7653  0.0230  0.4587
 9206SOL    HW129059   3.617   0.148   9.110 -3.1992 -1.3362  0.5033
 9206SOL    HW229060   3.675   0.056   9.005  0.5181  0.7799  0.5114
 9207SOL     OW29061   5.552   4.616   1.840 -0.0790 -0.2274 -0.1589
 9207SOL    HW129062   5.526   4.526   1.821 -0.7116  0.2126 -1.4798
 9207SOL    HW229063   5.471   4.666   1.837  0.2085  0.3490  0.9535
 9208SOL     OW29064   1.399   0.339   5.982  0.2533  0.1974  0.2057
 9208SOL    HW129065   1.485   0.315   5.947  0.5355 -0.1513  1.1230
 9208SOL    HW229066   1.351   0.257   5.985 -0.1375  0.3978 -0.3376
 9209SOL     OW29067   7.750   7.205  10.349  0.0171  0.3530 -0.0929
 9209SOL    HW129068   7.664   7.178  10.380  0.0955  0.8387  0.5514
 9209SOL    HW229069   7.757   7.166  10.261 -1.1053  0.8406 -0.4052
 9210SOL     OW29070   2.786   7.681   0.904 -0.1021  0.2472  0.1130
 9210SOL    HW129071   2.842   7.686   0.982 -0.4944  0.1545  0.4016
 9210SOL    HW229072   2.843   7.710   0.832  0.1194  0.7964  0.5036
 9211SOL     OW29073   3.028   2.098   2.615  0.1295 -0.0403  0.2847
 9211SOL    HW129074   3.075   2.103   2.698 -0.3864  0.0531  0.5718
 9211SOL    HW229075   2.936   2.110   2.638  0.0900  1.1838 -0.4368
 9212SOL     OW29076   0.337   3.978   6.833 -0.2012  0.0816  0.0710
 9212SOL    HW129077   0.352   4.064   6.871  0.3230  0.5664 -1.1786
 9212SOL    HW229078   0.245   3.959   6.853 -0.0821  0.5365  1.0975
 9213SOL     OW29079   4.912   5.260   1.396 -0.4294  0.0778  0.4657
 9213SOL    HW129080   4.895   5.174   1.357  0.2218  0.9064 -1.8417
 9213SOL    HW229081   4.931   5.241   1.488 -1.1977 -2.1333  0.2439
 9214SOL     OW29082   6.860   5.905  11.306 -0.0776  0.6263  0.3272
 9214SOL    HW129083   6.824   5.887  11.220  2.0993  2.2247 -1.0275
 9214SOL    HW229084   6.825   5.991  11.330 -0.8992  0.0695  1.2106
 9215SOL     OW29085   6.246   3.296   2.796  0.1930  0.8570 -0.2245
 9215SOL    HW129086   6.290   3.364   2.745 -1.2505 -0.0050 -2.8371
 9215SOL    HW229087   6.293   3.216   2.773  0.2962  0.5938  0.8519
 9216SOL     OW29088   3.426   6.611   2.832  0.6309  0.7473  0.2332
 9216SOL    HW129089   3.490   6.577   2.895 -0.6540  1.3182  1.9155
 9216SOL    HW229090   3.412   6.701   2.859 -0.1535  0.9274 -0.7394
 9217SOL     OW29091   3.765   3.020   0.726  0.0734  0.2684 -0.1193
 9217SOL    HW129092   3.776   2.925   0.721 -2.0213 -0.0643  0.7377
 9217SOL    HW229093   3.843   3.051   0.772  0.7043 -1.0471 -0.2626
 9218SOL     OW29094   4.779   5.470   7.903 -0.7233 -0.0252  0.6321
 9218SOL    HW129095   4.782   5.550   7.851 -1.3145 -1.2794 -1.4412
 9218SOL    HW229096   4.778   5.500   7.994  1.9782  2.2526  0.0593
 9219SOL     OW29097   5.189   2.105  11.050  0.4113 -0.2047  0.1372
 9219SOL    HW129098   5.180   2.106  10.955 -0.0139  3.5468  0.0472
 9219SOL    HW229099   5.284   2.104  11.065  0.4790 -0.9235 -0.3085
 9220SOL     OW29100   5.581   3.230   7.272 -0.3888 -0.2506  0.5068
 9220SOL    HW129101   5.605   3.305   7.326  0.6786  0.2173 -0.5695
 9220SOL    HW229102   5.584   3.155   7.332 -1.3809  0.5210  1.5754
 9221SOL     OW29103   7.204   2.205   7.387  0.7404 -0.5269 -0.4342
 9221SOL    HW129104   7.150   2.158   7.324  0.7527 -0.5936 -0.3938
 9221SOL    HW229105   7.271   2.248   7.334  1.4118 -1.4579 -0.3697
 9222SOL     OW29106   0.643   0.194   7.110 -0.6640  0.2657 -0.4804
 9222SOL    HW129107   0.714   0.241   7.066 -0.0409 -0.6032 -0.4275
 9222SOL    HW229108   0.681   0.166   7.194 -0.5658 -1.4907 -1.0709
 9223SOL     OW29109   1.260   4.983   6.718  0.1197 -0.2552 -0.3816
 9223SOL    HW129110   1.294   5.071   6.733  0.6052 -0.1923 -1.6847
 9223SOL    HW229111   1.197   4.993   6.647 -1.1909 -0.6956  0.6639
 9224SOL     OW29112   3.212   5.540   3.835 -0.4223  0.3405 -0.0770
 9224SOL    HW129113   3.191   5.612   3.895 -0.3916  0.1120  0.2085
 9224SOL    HW229114   3.169   5.564   3.753 -0.5743  0.5907  0.0742
 9225SOL     OW29115   4.184   1.744  10.066  1.3916  0.1910  0.2658
 9225SOL    HW129116   4.187   1.741   9.971 -0.2953  1.2536  0.1330
 9225SOL    HW229117   4.137   1.665  10.091  0.9640  0.3952  0.1273
 9226SOL     OW29118   5.532   4.084   3.026 -0.2098 -0.1426  0.4973
 9226SOL    HW129119   5.482   4.089   3.107 -0.7901 -1.7011  0.2836
 9226SOL    HW229120   5.468   4.058   2.959  0.4790 -0.0545 -0.2198
 9227SOL     OW29121   7.545   0.970   6.371 -0.5880 -0.3404  0.5401
 9227SOL    HW129122   7.549   0.885   6.329 -0.6562 -0.2175  0.2825
 9227SOL    HW229123   7.518   0.951   6.461  1.8690 -0.8380  1.2389
 9228SOL     OW29124   6.437   5.058  12.301  0.1535 -0.0508  0.3886
 9228SOL    HW129125   6.392   5.140  12.317  0.1823  0.1148 -0.3244
 9228SOL    HW229126   6.404   5.028  12.216 -0.2587 -1.0536  0.8805
 9229SOL     OW29127   0.675   2.753   3.322 -0.2765 -0.1804  0.1252
 9229SOL    HW129128   0.599   2.774   3.269 -0.9044 -1.0072  0.6693
 9229SOL    HW229129   0.644   2.687   3.383  1.1410 -1.3478 -0.3487
 9230SOL     OW29130   4.969   4.011  10.459  0.6303 -0.4219  0.5347
 9230SOL    HW129131   5.046   3.954  10.469  0.8247 -0.5220 -1.2375
 9230SOL    HW229132   4.974   4.071  10.533  1.0097 -2.0168  1.8635
 9231SOL     OW29133   5.844   7.723  10.967 -0.4005 -0.2863  0.4863
 9231SOL    HW129134   5.934   7.692  10.958 -0.0026  0.9119  0.2324
 9231SOL    HW229135   5.825   7.763  10.882  0.0700  2.6272  1.6638
 9232SOL     OW29136   3.183   6.976   5.667 -0.4755  0.0007 -0.2697
 9232SOL    HW129137   3.188   7.030   5.588  0.1081  1.8589  0.9515
 9232SOL    HW229138   3.237   6.900   5.648  0.0254  0.6403 -1.4946
 9233SOL     OW29139   0.501   3.520   4.554 -0.1253  0.7810  0.3549
 9233SOL    HW129140   0.455   3.570   4.486  0.8548 -1.4344 -2.1226
 9233SOL    HW229141   0.580   3.572   4.571  0.9873  0.1802 -2.3392
 9234SOL     OW29142   6.966   1.719   6.140  0.4671  0.2103 -0.0026
 9234SOL    HW129143   6.988   1.732   6.232  2.6388 -0.7777 -0.3257
 9234SOL    HW229144   7.050   1.721   6.094 -0.2932 -1.6172 -1.6493
 9235SOL     OW29145   2.352   5.895   0.072  0.2385  0.5467  0.1642
 9235SOL    HW129146   2.263   5.888   0.106  0.4643  0.0434  0.6641
 9235SOL    HW229147   2.386   5.806   0.075  1.6890  1.0794  2.5565
 9236SOL     OW29148   0.541   0.860   1.629  0.1352 -0.1951 -0.4504
 9236SOL    HW129149   0.540   0.916   1.551 -0.0756 -2.5651 -2.3043
 9236SOL    HW229150   0.553   0.771   1.594  3.4187 -1.1320  2.4633
 9237SOL     OW29151   1.084   2.623   4.395 -0.0800  0.6769  0.1659
 9237SOL    HW129152   1.178   2.628   4.377  0.1008 -1.6957  0.2125
 9237SOL    HW229153   1.044   2.675   4.325  1.2494  2.3940  0.5844
 9238SOL     OW29154   1.129   6.483   6.773  0.4164 -0.5717 -0.3287
 9238SOL    HW129155   1.161   6.397   6.800  2.5211  0.0590 -0.6172
 9238SOL    HW229156   1.113   6.475   6.679 -1.6792 -1.2558  0.0365
 9239SOL     OW29157   7.326   3.059   6.284 -0.2034 -0.5778 -0.2276
 9239SOL    HW129158   7.290   2.996   6.346  0.1559 -0.9193 -0.3626
 9239SOL    HW229159   7.346   3.007   6.206 -0.9875 -0.0874 -0.7602
 9240SOL     OW29160   2.661   3.244   6.989 -0.5350  0.3146  0.2688
 9240SOL    HW129161   2.672   3.165   6.936 -2.9377  0.7302 -0.9952
 9240SOL    HW229162   2.731   3.302   6.961  0.3685 -0.7900  0.1492
 9241SOL     OW29163   5.198   3.204   2.028 -0.1657 -0.5938 -0.2114
 9241SOL    HW129164   5.173   3.220   1.937 -1.3324 -0.4964  0.1134
 9241SOL    HW229165   5.249   3.281   2.053 -0.0007 -0.5354 -0.7138
 9242SOL     OW29166   3.987   2.391   0.320  0.3837  0.2574 -0.3081
 9242SOL    HW129167   4.005   2.484   0.308 -0.3510  0.2600 -1.5495
 9242SOL    HW229168   4.064   2.346   0.286  1.0781  0.4110  1.0127
 9243SOL     OW29169   0.396   0.394  12.300 -0.0718 -0.1630 -0.0144
 9243SOL    HW129170   0.384   0.462  12.234  1.2308 -0.2850 -0.4098
 9243SOL    HW229171   0.416   0.315  12.250 -2.0541 -0.9821  0.4205
 9244SOL     OW29172   4.060   6.531   6.092  0.0935  0.0977  0.0295
 9244SOL    HW129173   4.095   6.515   6.004  1.4005  0.2869  0.4960
 9244SOL    HW229174   4.129   6.502   6.151 -1.0297 -0.6517  1.0279
 9245SOL     OW29175   7.480   1.880   5.385 -0.1636 -0.1350 -0.1935
 9245SOL    HW129176   7.457   1.938   5.313 -0.3233 -0.1757 -0.1748
 9245SOL    HW229177   7.523   1.937   5.449  0.5916 -0.2173 -0.6125
 9246SOL     OW29178   4.670   0.458   4.005  0.1464  0.0122  0.9886
 9246SOL    HW129179   4.700   0.445   4.094  1.4350  0.9759  0.7201
 9246SOL    HW229180   4.729   0.405   3.951 -0.2720 -0.1303  0.6604
 9247SOL     OW29181   2.527   7.540   9.674 -0.1169  0.0582 -0.0805
 9247SOL    HW129182   2.464   7.604   9.639 -0.8004 -1.0785 -0.9729
 9247SOL    HW229183   2.612   7.571   9.642 -0.4412  0.4933 -0.5501
 9248SOL     OW29184   2.977   0.686  10.754  0.5202 -0.2094  0.9337
 9248SOL    HW129185   2.962   0.592  10.766  3.1345 -0.5558  2.2167
 9248SOL    HW229186   2.992   0.720  10.842  0.8518  1.1755  0.3818
 9249SOL     OW29187   0.599   4.528   7.860  0.6547 -0.5916 -0.6239
 9249SOL    HW129188   0.649   4.537   7.779  1.3726 -1.2295 -0.2642
 9249SOL    HW229189   0.552   4.446   7.851  0.4541 -0.4892 -0.5355
 9250SOL     OW29190   1.961   2.511   4.838 -0.0719 -0.2644  0.3316
 9250SOL    HW129191   1.880   2.503   4.788  0.6250  0.7597 -1.0222
 9250SOL    HW229192   2.031   2.495   4.774  0.8442  0.8657  1.0004
 9251SOL     OW29193   2.475   0.691   1.919 -0.1300  0.2897  0.1417
 9251SOL    HW129194   2.548   0.745   1.951  0.0990  1.0649 -1.5834
 9251SOL    HW229195   2.471   0.710   1.825 -2.4138  0.0860  0.1507
 9252SOL     OW29196   6.718   7.714   0.966  0.6344 -0.2039  0.7790
 9252SOL    HW129197   6.749   7.712   0.875  1.4344  2.8305  0.8538
 9252SOL    HW229198   6.798   7.708   1.018  1.0136  3.8935  1.0366
 9253SOL     OW29199   1.624   3.627   7.120 -0.5606 -0.4631 -0.0912
 9253SOL    HW129200   1.537   3.594   7.097 -0.0054 -0.7927 -1.8943
 9253SOL    HW229201   1.612   3.668   7.206 -2.0132 -2.3416  0.6685
 9254SOL     OW29202   2.315   2.510   0.995 -0.0799  0.1178  0.5715
 9254SOL    HW129203   2.396   2.558   0.981 -0.1070  0.1929  0.6741
 9254SOL    HW229204   2.249   2.558   0.946 -0.6705  1.7508  2.7840
 9255SOL     OW29205   0.797   4.257  11.693  0.3131 -0.1731  0.1911
 9255SOL    HW129206   0.856   4.329  11.716 -1.6136  0.9633  1.9958
 9255SOL    HW229207   0.718   4.273  11.745 -1.2502 -2.1258 -1.3818
 9256SOL     OW29208   6.115   6.408   1.144 -0.0980 -0.1851 -0.1943
 9256SOL    HW129209   6.068   6.344   1.198  1.2651  0.3505  1.7292
 9256SOL    HW229210   6.083   6.493   1.175  0.9782  0.1411  0.0604
 9257SOL     OW29211   0.985   0.730   4.212 -0.2192  0.1481  0.4900
 9257SOL    HW129212   0.970   0.813   4.166 -1.0719 -0.8414 -1.1041
 9257SOL    HW229213   0.966   0.662   4.146  3.4570 -1.3611  0.7453
 9258SOL     OW29214   2.456   6.599   4.876 -0.3594 -0.2019  0.2056
 9258SOL    HW129215   2.454   6.695   4.872 -1.4871 -0.2208 -0.0806
 9258SOL    HW229216   2.492   6.580   4.962 -0.4330  0.4870  0.3989
 9259SOL     OW29217   2.364   1.546   3.756  0.3207  0.5565  0.6659
 9259SOL    HW129218   2.414   1.596   3.820  0.8304 -0.4658  1.0702
 9259SOL    HW229219   2.317   1.480   3.807 -1.0174  1.1288  0.2324
 9260SOL     OW29220   1.263   3.967  10.427  0.1296  0.4158  0.0867
 9260SOL    HW129221   1.329   3.998  10.365 -0.6401  0.5907 -0.6706
 9260SOL    HW229222   1.313   3.923  10.496  1.2115  2.6478  0.8237
 9261SOL     OW29223   7.738   4.985   7.413 -0.0471 -0.2473 -0.1311
 9261SOL    HW129224   7.751   4.935   7.494 -2.3786 -0.7134  0.0187
 9261SOL    HW229225   7.643   4.993   7.405  0.1768  1.0657 -2.0732
 9262SOL     OW29226   4.473   1.874   8.153 -0.4930 -0.1899  0.3232
 9262SOL    HW129227   4.425   1.953   8.178 -2.1704 -0.7402 -1.0011
 9262SOL    HW229228   4.481   1.879   8.058  0.9985 -0.7527  0.3868
 9263SOL     OW29229   6.080   3.161   3.016  0.0252  0.5307 -0.2345
 9263SOL    HW129230   6.039   3.228   3.071  1.2549  1.5819 -0.5532
 9263SOL    HW229231   6.095   3.205   2.932  1.0658 -0.0665 -0.3775
 9264SOL     OW29232   5.789   3.966   9.781 -0.2193  0.1955 -0.1116
 9264SOL    HW129233   5.816   3.875   9.764  0.4857  0.4852 -0.5699
 9264SOL    HW229234   5.799   4.010   9.697 -0.7424  0.6656  0.0654
 9265SOL     OW29235   1.081   3.468   3.707  0.0960 -0.3980  0.1989
 9265SOL    HW129236   1.068   3.552   3.663  0.8617 -0.2346  0.2664
 9265SOL    HW229237   1.170   3.473   3.743  0.2352 -1.3177  0.0220
 9266SOL     OW29238   5.407   0.842   9.033 -0.1417 -0.4853 -0.4228
 9266SOL    HW129239   5.318   0.875   9.042 -0.2432 -0.5790 -1.0248
 9266SOL    HW229240   5.399   0.747   9.042 -0.4042 -0.6972 -2.3756
 9267SOL     OW29241   3.157   5.768   6.886 -0.3700  0.2630  0.2015
 9267SOL    HW129242   3.115   5.838   6.836  0.8903  1.5131  0.8131
 9267SOL    HW229243   3.193   5.812   6.963  1.6231 -0.7940 -0.0550
 9268SOL     OW29244   6.084   2.577   1.027  0.0481  0.8161  0.0872
 9268SOL    HW129245   6.011   2.637   1.012  0.3917  1.1848 -0.1405
 9268SOL    HW229246   6.156   2.634   1.056  0.0527  0.3817  0.9473
 9269SOL     OW29247   0.962   7.256   5.255  0.1574 -0.4980  0.4163
 9269SOL    HW129248   0.979   7.284   5.345  0.9519 -0.4327  0.2515
 9269SOL    HW229249   0.866   7.248   5.251 -0.1235  2.0248  0.5235
 9270SOL     OW29250   0.432   6.008   7.969 -0.2402 -0.2727  0.2986
 9270SOL    HW129251   0.363   6.045   8.023 -0.0586  1.5252 -0.6087
 9270SOL    HW229252   0.390   5.934   7.924 -1.5618  0.7050 -0.1483
 9271SOL     OW29253   1.519   3.796   4.605 -0.0674  0.0883  0.1695
 9271SOL    HW129254   1.496   3.825   4.693  0.1081  1.8210 -0.3154
 9271SOL    HW229255   1.496   3.703   4.603 -0.2949  0.0802  1.9526
 9272SOL     OW29256   4.932   1.539   9.006 -0.0626 -0.3230 -0.1988
 9272SOL    HW129257   5.007   1.566   8.952 -0.4513  1.4212  0.0628
 9272SOL    HW229258   4.875   1.616   9.007 -1.3975 -1.2786  0.4307
 9273SOL     OW29259   4.446   0.560   5.315 -0.1067  0.0207 -0.9523
 9273SOL    HW129260   4.377   0.617   5.348 -0.4035 -1.0161  0.2709
 9273SOL    HW229261   4.436   0.564   5.220 -1.2814  0.5788 -0.8221
 9274SOL     OW29262   5.515   5.741   9.409  0.3440 -0.2846 -0.6319
 9274SOL    HW129263   5.443   5.786   9.364 -1.1036 -1.7346  0.1427
 9274SOL    HW229264   5.534   5.666   9.353  0.8165 -0.2676 -0.4926
 9275SOL     OW29265   3.023   7.224  10.093 -0.2469  0.1295  0.1459
 9275SOL    HW129266   3.085   7.280  10.139 -0.1726 -0.3487  0.6422
 9275SOL    HW229267   2.938   7.264  10.110 -0.2210 -0.0401  0.7102
 9276SOL     OW29268   3.395   6.384   8.537  0.0860  0.4685  0.1006
 9276SOL    HW129269   3.454   6.400   8.464  1.0417 -1.7834  0.3051
 9276SOL    HW229270   3.313   6.357   8.496  0.2589  0.3161 -0.1423
 9277SOL     OW29271   4.870   5.730   9.329  0.4588  0.0427 -0.1828
 9277SOL    HW129272   4.783   5.770   9.321  0.2780 -0.1761  0.5762
 9277SOL    HW229273   4.853   5.637   9.343  0.7540  0.1955  1.3483
 9278SOL     OW29274   7.344   7.044   0.296  0.0292 -0.1618  0.3936
 9278SOL    HW129275   7.428   7.041   0.341  0.3761  1.2741 -0.0824
 9278SOL    HW229276   7.307   7.130   0.320 -1.4810 -0.9159  0.8900
 9279SOL     OW29277   0.726   6.702   7.889  0.3552 -0.3091 -0.2176
 9279SOL    HW129278   0.695   6.730   7.976 -0.7230 -0.6068 -0.4957
 9279SOL    HW229279   0.796   6.640   7.908  0.0938 -0.4178  0.4394
 9280SOL     OW29280   5.861   7.579   2.713  0.1487  0.3124 -0.1970
 9280SOL    HW129281   5.792   7.550   2.772  0.7334  1.5684  1.1603
 9280SOL    HW229282   5.929   7.615   2.771  1.1164  0.8252 -1.5902
 9281SOL     OW29283   1.143   4.112   9.768 -0.5924  0.3675  0.5315
 9281SOL    HW129284   1.096   4.031   9.787 -0.7325 -0.0938 -1.4992
 9281SOL    HW229285   1.150   4.157   9.852 -1.0635 -1.4548  1.5954
 9282SOL     OW29286   5.307   0.811  10.062  0.3455  0.3139  0.2143
 9282SOL    HW129287   5.296   0.906  10.057  1.4644  0.5025  0.9683
 9282SOL    HW229288   5.378   0.799  10.126 -0.1138 -1.0439  0.4867
 9283SOL     OW29289   7.190   3.756  10.108 -0.5063  0.1350  0.1068
 9283SOL    HW129290   7.166   3.665  10.088 -0.5502  0.1463  0.1075
 9283SOL    HW229291   7.197   3.799  10.023 -0.3377  0.0937  0.1013
 9284SOL     OW29292   7.154   2.095   8.728  0.0226  0.2799  0.0777
 9284SOL    HW129293   7.124   2.027   8.788  1.1713  0.2500  0.6480
 9284SOL    HW229294   7.074   2.129   8.689 -0.5936 -1.3553 -0.1839
 9285SOL     OW29295   0.259   4.429   0.042  0.1090 -0.1072 -0.9445
 9285SOL    HW129296   0.227   4.421  -0.048  0.8022  1.0093 -1.3007
 9285SOL    HW229297   0.236   4.345   0.082 -0.6318 -0.4466 -2.0179
 9286SOL     OW29298   2.824   4.920   2.484 -0.1068  0.1616  0.5019
 9286SOL    HW129299   2.889   4.981   2.449 -1.5392  2.0877  1.0242
 9286SOL    HW229300   2.760   4.911   2.414 -0.0836 -0.4680  0.5626
 9287SOL     OW29301   3.727   0.347   2.716  0.0668 -0.3735 -0.6613
 9287SOL    HW129302   3.820   0.327   2.718  0.1766 -0.0440  2.6060
 9287SOL    HW229303   3.718   0.415   2.649  1.7222 -1.9788 -2.6482
 9288SOL     OW29304   2.458   2.284   7.293 -0.0022 -0.1898  0.0562
 9288SOL    HW129305   2.536   2.243   7.254 -2.1057 -1.6444 -3.0775
 9288SOL    HW229306   2.396   2.212   7.304 -0.7532  0.8026  3.1302
 9289SOL     OW29307   6.544   5.287   1.611 -0.0670  0.5177  0.2675
 9289SOL    HW129308   6.449   5.280   1.605  0.1074 -2.1056 -0.5948
 9289SOL    HW229309   6.566   5.251   1.697  0.2092  0.2399  0.0829
 9290SOL     OW29310   7.719   0.443   4.665 -0.0107  0.3345 -0.2816
 9290SOL    HW129311   7.814   0.435   4.670 -0.1482 -1.0266  0.8969
 9290SOL    HW229312   7.687   0.404   4.747 -1.5926  0.6566 -0.6984
 9291SOL     OW29313   4.876   4.249   2.836 -0.1011 -0.4217  0.1619
 9291SOL    HW129314   4.817   4.321   2.858  2.1083  2.0673 -1.4378
 9291SOL    HW229315   4.865   4.187   2.908 -2.0344  1.5584  1.7211
 9292SOL     OW29316   5.527   0.143   8.715  0.5234  0.1244 -0.4483
 9292SOL    HW129317   5.457   0.186   8.763  1.6442  2.1130 -0.5002
 9292SOL    HW229318   5.595   0.127   8.781  1.1605  0.8390 -0.9090
 9293SOL     OW29319   2.485   2.934   3.982 -0.5978  0.2835 -0.1831
 9293SOL    HW129320   2.428   2.950   3.907  0.0087  0.9395 -0.5102
 9293SOL    HW229321   2.574   2.941   3.947 -0.3097 -0.7182  0.3255
 9294SOL     OW29322   4.878   7.279   2.337 -0.3866 -0.1995 -0.2841
 9294SOL    HW129323   4.937   7.261   2.264  0.2662  0.4438  0.0656
 9294SOL    HW229324   4.894   7.371   2.359 -1.8518  0.1187 -0.4637
 9295SOL     OW29325   6.695   3.481   7.519 -0.0714 -0.8094  0.1984
 9295SOL    HW129326   6.758   3.553   7.528  1.3179 -1.8210 -0.9466
 9295SOL    HW229327   6.727   3.431   7.444 -2.4208 -1.2287 -0.6091
 9296SOL     OW29328   1.434   4.026  10.240 -0.2551  0.3073  0.4685
 9296SOL    HW129329   1.500   3.957  10.235  0.7480  1.1411  1.6454
 9296SOL    HW229330   1.484   4.107  10.248 -1.4109  1.2218 -1.0322
 9297SOL     OW29331   3.885   6.642   9.144  0.2124  0.3659 -0.7273
 9297SOL    HW129332   3.946   6.596   9.201  0.2436  0.8247 -0.3821
 9297SOL    HW229333   3.859   6.578   9.078  0.1192 -0.1925 -0.1537
 9298SOL     OW29334   4.938   7.194   6.567 -0.3156 -0.2315  0.1151
 9298SOL    HW129335   4.905   7.121   6.514 -0.5590  0.5476 -0.8398
 9298SOL    HW229336   4.927   7.271   6.511 -0.4234  0.6045  1.2487
 9299SOL     OW29337   3.376   2.148  11.220 -0.3885  0.2415  0.2217
 9299SOL    HW129338   3.286   2.169  11.193 -1.3045 -0.6932  2.3538
 9299SOL    HW229339   3.405   2.083  11.157 -1.9538 -0.8987  0.6110
 9300SOL     OW29340   7.194   4.708   3.997 -0.2353  0.6719  0.2108
 9300SOL    HW129341   7.271   4.754   3.961 -0.1404 -0.2404 -0.8126
 9300SOL    HW229342   7.230   4.653   4.066 -0.0525  0.6960  0.1376
 9301SOL     OW29343   0.205   1.710   8.146  0.2130 -0.5140 -0.2829
 9301SOL    HW129344   0.236   1.639   8.090 -2.1282 -1.3184 -0.6807
 9301SOL    HW229345   0.228   1.683   8.235 -1.1782 -2.1286 -0.3692
 9302SOL     OW29346   6.292   1.059   8.875  0.6228 -0.2936 -0.5584
 9302SOL    HW129347   6.208   1.043   8.831  1.1633 -2.8221 -0.8203
 9302SOL    HW229348   6.268   1.089   8.963 -0.5458 -0.4707 -0.8013
 9303SOL     OW29349   6.352   0.968   4.542 -0.2735  0.3501 -0.1024
 9303SOL    HW129350   6.400   0.894   4.506  1.7589  0.8667  1.3756
 9303SOL    HW229351   6.262   0.954   4.514  0.9936  0.7670 -5.3896
 9304SOL     OW29352   0.203   6.484   9.539 -0.2866  0.1474 -0.6132
 9304SOL    HW129353   0.196   6.574   9.506 -1.1676  0.7012  0.9934
 9304SOL    HW229354   0.121   6.443   9.511 -0.7401  0.4244  0.2808
 9305SOL     OW29355   3.185   4.232   2.350 -0.4056  0.2538 -0.4056
 9305SOL    HW129356   3.238   4.273   2.418  1.8117 -1.6438 -0.8218
 9305SOL    HW229357   3.109   4.289   2.340  1.0522  2.6103  0.9816
 9306SOL     OW29358   3.861   2.031   7.924  0.5035  0.0840  0.1643
 9306SOL    HW129359   3.787   1.980   7.891  1.0136 -0.7974  0.3623
 9306SOL    HW229360   3.832   2.065   8.009  0.5800 -0.8632  0.5763
 9307SOL     OW29361   5.039   3.847   5.362 -0.2680 -0.5243 -0.3448
 9307SOL    HW129362   5.127   3.825   5.393 -0.4475 -0.6702  0.0647
 9307SOL    HW229363   5.032   3.802   5.277 -0.8078 -2.5494  0.7011
 9308SOL     OW29364   2.330   3.462  12.010  0.4035  0.3936  0.6815
 9308SOL    HW129365   2.254   3.454  11.952  0.7407  3.1703 -0.2934
 9308SOL    HW229366   2.404   3.436  11.956  0.4331  0.4010  0.7184
 9309SOL     OW29367   4.656   0.021   6.996 -0.1993  0.0344 -0.2065
 9309SOL    HW129368   4.723   0.082   7.027 -0.8018  1.9914 -2.4551
 9309SOL    HW229369   4.576   0.046   7.044 -0.1040 -0.0460 -0.0029
 9310SOL     OW29370   4.058   7.059   8.308  0.1378 -0.0615  0.4536
 9310SOL    HW129371   3.987   7.080   8.369  0.0300  0.1340  0.2640
 9310SOL    HW229372   4.114   6.999   8.357  1.4374  2.0211  1.6921
 9311SOL     OW29373   7.823   6.996   6.353 -0.0421  0.2880 -0.8619
 9311SOL    HW129374   7.864   7.081   6.338  0.1901  0.0781 -1.4250
 9311SOL    HW229375   7.741   7.017   6.399  1.6825  0.5867  2.4039
 9312SOL     OW29376   5.260   3.276   2.850 -0.0128  0.7534 -0.0400
 9312SOL    HW129377   5.167   3.269   2.873  0.3769  1.4560  1.9571
 9312SOL    HW229378   5.285   3.189   2.820 -0.7469 -0.1289  1.7816
 9313SOL     OW29379   3.905   1.624   3.372  0.0429 -0.5070 -0.2445
 9313SOL    HW129380   3.934   1.533   3.380  0.0183 -0.3604  2.6067
 9313SOL    HW229381   3.973   1.675   3.415 -0.3636  0.7371 -1.0371
 9314SOL     OW29382   6.597   0.927   7.227 -0.6465  0.2472  0.2725
 9314SOL    HW129383   6.512   0.960   7.197  0.2740  1.3309 -1.2488
 9314SOL    HW229384   6.659   0.998   7.210  0.4061 -0.0316  2.5108
 9315SOL     OW29385   6.511   3.800   5.898 -0.4100 -0.0430 -0.0284
 9315SOL    HW129386   6.597   3.836   5.875 -0.3112 -1.3123 -1.9105
 9315SOL    HW229387   6.517   3.782   5.992  0.1969  2.8640  0.5889
 9316SOL     OW29388   6.981   3.443  11.551 -0.1688  0.2473 -0.5495
 9316SOL    HW129389   6.902   3.496  11.545  0.4124  1.1334 -0.5338
 9316SOL    HW229390   6.984   3.414  11.642 -1.0984 -0.7931 -0.8302
 9317SOL     OW29391   5.527   1.477   1.122 -0.1703 -0.3523  0.6507
 9317SOL    HW129392   5.587   1.539   1.080  0.1504  0.2404  1.9506
 9317SOL    HW229393   5.581   1.400   1.139  0.0517 -0.0774  1.2013
 9318SOL     OW29394   6.543   2.882   2.591  0.0215 -0.3634  0.1680
 9318SOL    HW129395   6.559   2.795   2.554 -2.6982 -1.8509  2.1119
 9318SOL    HW229396   6.472   2.917   2.537 -0.9999 -0.7152  1.2448
 9319SOL     OW29397   3.069   4.320   6.883  0.1750 -0.8105 -0.4819
 9319SOL    HW129398   2.986   4.283   6.913 -0.9602  0.8674 -1.3854
 9319SOL    HW229399   3.131   4.297   6.951 -0.9490 -2.3694  0.0800
 9320SOL     OW29400   1.952   1.949   2.789 -0.1378  0.0165 -0.0775
 9320SOL    HW129401   2.039   1.957   2.827  0.1325 -1.0588 -0.4456
 9320SOL    HW229402   1.898   1.915   2.861 -0.4003  1.2275  0.3205
 9321SOL     OW29403   4.105   2.523   5.791 -0.4991 -0.1970  0.2472
 9321SOL    HW129404   4.085   2.465   5.864  0.4355 -0.1154  0.5687
 9321SOL    HW229405   4.019   2.549   5.757 -0.9938  0.9621  2.2379
 9322SOL     OW29406   4.143   0.439   4.631 -0.1456 -0.9171  0.4204
 9322SOL    HW129407   4.118   0.509   4.690  0.1620  1.2835 -1.8856
 9322SOL    HW229408   4.075   0.437   4.565  1.6445 -0.2085 -1.5713
 9323SOL     OW29409   4.937   4.220   0.876  0.1456  0.7651  0.5289
 9323SOL    HW129410   4.847   4.240   0.903  0.5563  1.8698  1.1282
 9323SOL    HW229411   4.952   4.275   0.799  0.2245  0.3781  0.2652
 9324SOL     OW29412   2.810   5.612   8.503  0.0524 -0.2160 -0.0115
 9324SOL    HW129413   2.765   5.617   8.587  0.2257 -0.6063  0.1074
 9324SOL    HW229414   2.748   5.649   8.440 -0.8468 -1.6799 -0.0167
 9325SOL     OW29415   6.592   5.500   9.603 -0.3905 -0.3151  0.1661
 9325SOL    HW129416   6.531   5.569   9.630  0.4607  0.7716 -0.5696
 9325SOL    HW229417   6.536   5.431   9.568 -1.2166  0.5758 -0.3181
 9326SOL     OW29418   6.445   1.604   8.245 -0.0889 -0.3700  0.1802
 9326SOL    HW129419   6.461   1.641   8.332  3.7803  1.0719 -0.9579
 9326SOL    HW229420   6.531   1.578   8.214 -1.5091 -1.9507 -2.8107
 9327SOL     OW29421   2.515   2.789  10.896 -0.4501  0.2997 -0.0520
 9327SOL    HW129422   2.475   2.847  10.961 -0.8328  0.9235 -0.8349
 9327SOL    HW229423   2.544   2.713  10.947  3.1185  2.5151  1.6569
 9328SOL     OW29424   4.230   6.150   5.931  0.2668  0.0431  0.3551
 9328SOL    HW129425   4.268   6.098   5.861 -1.4238  1.0380 -1.3912
 9328SOL    HW229426   4.296   6.217   5.951  0.6143 -0.0177 -0.5559
 9329SOL     OW29427   6.565   4.267   3.942  0.0222 -0.5506  0.1683
 9329SOL    HW129428   6.490   4.316   3.910 -0.1956 -0.8155  0.2732
 9329SOL    HW229429   6.633   4.333   3.956  0.8633 -0.6055 -2.8510
 9330SOL     OW29430   6.781   5.882  11.856  1.0892  0.1082  0.1623
 9330SOL    HW129431   6.775   5.882  11.760  0.2992  0.2671  0.2064
 9330SOL    HW229432   6.811   5.794  11.878 -0.6865 -0.6157 -0.1342
 9331SOL     OW29433   1.529   4.298  10.948  0.3488 -0.5284  0.1070
 9331SOL    HW129434   1.476   4.254  10.882  0.4310  1.1212 -1.1242
 9331SOL    HW229435   1.494   4.267  11.031 -2.2307  0.0846 -0.6521
 9332SOL     OW29436   4.441   7.794   4.844 -0.3367  0.0910  0.2212
 9332SOL    HW129437   4.386   7.871   4.859  0.6497  1.0681 -0.9322
 9332SOL    HW229438   4.380   7.724   4.825 -1.2174  0.8629  0.1243
 9333SOL     OW29439   1.040   2.591   2.678 -0.2416  0.4146 -0.3842
 9333SOL    HW129440   1.114   2.619   2.625 -1.1764  0.7806 -1.5388
 9333SOL    HW229441   1.057   2.499   2.697  0.3198  0.3946 -0.9661
 9334SOL     OW29442   4.988   2.212   3.320  0.0960 -0.5870  0.1513
 9334SOL    HW129443   4.896   2.211   3.291  0.1194 -1.1643  0.0917
 9334SOL    HW229444   4.989   2.272   3.394 -0.1655  0.1002 -0.3848
 9335SOL     OW29445   5.132   7.429   5.585  0.1164 -0.2927 -0.9932
 9335SOL    HW129446   5.170   7.377   5.656 -2.0033  0.2606  0.6372
 9335SOL    HW229447   5.056   7.379   5.556  1.1781 -0.7139 -3.2490
 9336SOL     OW29448   4.897   3.295  11.520  0.0816 -0.5126 -0.0354
 9336SOL    HW129449   4.899   3.372  11.463 -0.4143 -0.0451  0.5637
 9336SOL    HW229450   4.962   3.315  11.588 -0.1787 -0.5352  0.2227
 9337SOL     OW29451   7.882   2.347   3.830 -0.0228 -0.0553  0.0067
 9337SOL    HW129452   7.899   2.363   3.923  0.3589  0.0756 -0.0844
 9337SOL    HW229453   7.966   2.319   3.795 -0.2644 -0.5307 -0.2129
 9338SOL     OW29454   5.757   0.431   5.621 -1.0414  0.0835 -0.2183
 9338SOL    HW129455   5.730   0.402   5.534  0.1781  0.5602 -0.7757
 9338SOL    HW229456   5.780   0.523   5.610 -0.5753  0.0669  0.5378
 9339SOL     OW29457   1.487   1.829  11.180 -0.2866  0.0361 -0.0464
 9339SOL    HW129458   1.467   1.779  11.259 -1.0147 -1.7920 -1.2974
 9339SOL    HW229459   1.427   1.794  11.114  1.3126  0.4115 -1.7919
 9340SOL     OW29460   3.361   7.463   9.172 -0.1208 -0.0426 -0.4569
 9340SOL    HW129461   3.358   7.534   9.236  0.6148  0.0483 -0.5104
 9340SOL    HW229462   3.278   7.417   9.183  0.1468 -0.2493  0.8160
 9341SOL     OW29463   0.616   2.573  12.067 -0.2978  0.0751  0.1569
 9341SOL    HW129464   0.544   2.594  12.008  0.2594  2.0099  0.0913
 9341SOL    HW229465   0.695   2.601  12.019  0.3510 -0.4231  0.9118
 9342SOL     OW29466   6.108   0.590   6.014 -0.0894 -0.2782  0.1016
 9342SOL    HW129467   6.170   0.661   5.992 -2.0668  1.5317  0.0508
 9342SOL    HW229468   6.036   0.635   6.058 -1.0237 -2.4272  0.8555
 9343SOL     OW29469   6.545   5.675   4.711  0.0470  0.4534  0.9165
 9343SOL    HW129470   6.506   5.605   4.660 -1.7591  0.8985  1.6334
 9343SOL    HW229471   6.594   5.727   4.647 -0.5504 -0.1134 -0.0124
 9344SOL     OW29472   3.989   0.968   6.934  0.3821 -0.3052  0.4602
 9344SOL    HW129473   4.030   0.999   7.015  0.6962 -1.1639  0.6320
 9344SOL    HW229474   3.923   1.035   6.915  0.1924 -0.1705  1.5076
 9345SOL     OW29475   7.565   4.225  11.911 -0.3951  0.0020  0.0415
 9345SOL    HW129476   7.576   4.218  11.816 -0.7051 -2.1323  0.1304
 9345SOL    HW229477   7.478   4.190  11.928  0.6103 -2.0040  1.3455
 9346SOL     OW29478   0.067   1.405   6.863 -0.7563 -0.0690  0.1251
 9346SOL    HW129479   0.065   1.367   6.951 -2.3447  1.3201  0.7434
 9346SOL    HW229480  -0.013   1.457   6.857 -0.6117  0.0127 -2.1022
 9347SOL     OW29481   5.987   1.601   9.511  0.1690  0.0815 -0.5628
 9347SOL    HW129482   5.986   1.552   9.429  0.1680 -0.1033 -0.4527
 9347SOL    HW229483   6.057   1.560   9.563 -0.2607 -0.2149 -0.2169
 9348SOL     OW29484   4.924   7.431   2.894  0.4708 -0.2081 -0.0897
 9348SOL    HW129485   4.845   7.380   2.876 -0.3233  0.0175  2.3344
 9348SOL    HW229486   4.917   7.509   2.839 -1.0014 -0.2080  0.0787
 9349SOL     OW29487   0.532   1.439   0.013  0.4196 -0.2987 -0.1463
 9349SOL    HW129488   0.557   1.359   0.060  0.9709 -1.4667 -2.2397
 9349SOL    HW229489   0.605   1.454  -0.047  0.0409  1.4693 -0.2049
 9350SOL     OW29490   3.446   3.270   7.151 -0.3229  0.6114 -0.0821
 9350SOL    HW129491   3.536   3.237   7.150 -0.7201 -0.6143  1.2087
 9350SOL    HW229492   3.452   3.355   7.196  0.1661  0.4275  0.2143
 9351SOL     OW29493   1.519   2.577   7.374  0.2152 -0.1362 -0.3698
 9351SOL    HW129494   1.508   2.660   7.327  1.2037 -0.0851 -0.5250
 9351SOL    HW229495   1.435   2.533   7.364  0.6568 -0.5461 -2.9887
 9352SOL     OW29496   4.919   1.176  11.906  0.0646 -0.2937 -0.1505
 9352SOL    HW129497   4.932   1.081  11.914 -0.4473 -0.3279  0.3948
 9352SOL    HW229498   4.994   1.206  11.855  1.4369 -0.6789  1.5471
 9353SOL     OW29499   7.064   3.483   8.526 -0.2840 -0.1914  0.4234
 9353SOL    HW129500   7.045   3.495   8.619 -2.1031  1.0092 -0.0497
 9353SOL    HW229501   6.978   3.480   8.485  0.5168  0.7765 -1.3938
 9354SOL     OW29502   1.002   5.857   4.482  0.5142 -0.2102 -0.1635
 9354SOL    HW129503   1.058   5.849   4.405 -0.9398  0.0061 -1.2792
 9354SOL    HW229504   1.052   5.815   4.552  1.6614 -0.8503 -1.3259
 9355SOL     OW29505   0.635   4.331   8.178  0.1545  0.0248 -0.5856
 9355SOL    HW129506   0.636   4.358   8.087 -0.5635  0.6251 -0.4287
 9355SOL    HW229507   0.700   4.387   8.221 -0.6913  0.9161 -0.4304
 9356SOL     OW29508   5.683   7.537   9.698 -0.3412 -1.2816  0.1674
 9356SOL    HW129509   5.683   7.612   9.638  0.8911 -1.2439  0.1879
 9356SOL    HW229510   5.699   7.461   9.642 -0.7626 -1.4353  0.2538
 9357SOL     OW29511   1.840   5.385  12.070  0.6191  0.0289  0.1651
 9357SOL    HW129512   1.766   5.399  12.010  0.3670  0.6525  0.6091
 9357SOL    HW229513   1.896   5.322  12.024  0.5716  0.6928 -0.8442
 9358SOL     OW29514   1.238   0.889   3.539  0.0810 -0.2111 -0.2928
 9358SOL    HW129515   1.280   0.803   3.535  0.4499 -0.0715  0.3654
 9358SOL    HW229516   1.153   0.876   3.497  0.0101 -0.9694  0.0569
 9359SOL     OW29517   4.809   0.914   9.347 -0.2854 -0.1798 -0.6341
 9359SOL    HW129518   4.800   0.831   9.394 -0.3100 -0.3988 -1.0218
 9359SOL    HW229519   4.729   0.921   9.295  0.1804 -0.4295 -1.4058
 9360SOL     OW29520   1.252   3.055   9.283  0.1011  0.3297 -0.1505
 9360SOL    HW129521   1.267   3.140   9.241 -1.9246  1.2128  0.8024
 9360SOL    HW229522   1.233   2.995   9.211 -0.9594  1.2824 -0.6837
 9361SOL     OW29523   3.530   4.200  11.739 -0.2477 -0.4040  0.1404
 9361SOL    HW129524   3.625   4.215  11.734 -0.1897 -1.0224 -0.9696
 9361SOL    HW229525   3.492   4.280  11.702 -0.1086 -0.7585 -0.7789
 9362SOL     OW29526   4.155   6.146   0.293  0.0464 -0.3324  0.2284
 9362SOL    HW129527   4.183   6.230   0.256 -1.3238 -1.1841 -3.0735
 9362SOL    HW229528   4.227   6.121   0.351  3.5283  0.3197 -3.3090
 9363SOL     OW29529   5.281   5.250   5.216 -0.1180 -0.0098  0.0942
 9363SOL    HW129530   5.312   5.213   5.298  0.5778 -1.5113 -0.8019
 9363SOL    HW229531   5.318   5.339   5.214 -1.2423  0.5599  1.9720
 9364SOL     OW29532   2.518   3.298   9.125 -0.1192  0.1960  0.0518
 9364SOL    HW129533   2.430   3.260   9.123  0.4371 -1.1373  0.0541
 9364SOL    HW229534   2.522   3.352   9.046 -1.7222  2.1816  1.2298
 9365SOL     OW29535   4.771   4.675   0.830  0.9697  0.0381 -0.2821
 9365SOL    HW129536   4.716   4.690   0.753  1.7581 -0.6542 -0.9917
 9365SOL    HW229537   4.820   4.757   0.841  0.5817  0.2749 -0.2735
 9366SOL     OW29538   5.341   7.248   6.055 -0.5606 -0.2757 -0.3308
 9366SOL    HW129539   5.247   7.232   6.070 -1.0551  1.4458 -1.3497
 9366SOL    HW229540   5.379   7.160   6.047 -1.9060 -1.0315  1.0417
 9367SOL     OW29541   1.798   0.498   2.458 -0.1007  0.1758 -0.1634
 9367SOL    HW129542   1.743   0.443   2.402 -1.9805 -0.4426  2.1376
 9367SOL    HW229543   1.752   0.582   2.461  1.3164  1.0534 -1.4542
 9368SOL     OW29544   5.298   5.443   1.819  0.2983 -0.0109  0.0899
 9368SOL    HW129545   5.225   5.384   1.839 -0.9853  0.7001 -2.2455
 9368SOL    HW229546   5.258   5.529   1.811  1.8792  0.9264  1.6013
 9369SOL     OW29547   6.928   1.699   9.544  0.0117 -0.2074 -0.1731
 9369SOL    HW129548   6.943   1.665   9.456  0.7000  1.2631 -0.6504
 9369SOL    HW229549   6.963   1.788   9.542 -1.8466  0.6052  0.9756
 9370SOL     OW29550   0.868   5.326  11.679 -0.4461 -0.0654 -0.3392
 9370SOL    HW129551   0.895   5.418  11.675  3.0341 -0.9742 -1.0054
 9370SOL    HW229552   0.875   5.295  11.589 -0.9902 -1.1438 -0.0260
 9371SOL     OW29553   5.153   5.740   2.702 -0.3687  0.3472  0.5758
 9371SOL    HW129554   5.158   5.767   2.794 -1.7461  0.0046  0.7772
 9371SOL    HW229555   5.187   5.815   2.653  0.5838  0.4527  1.3603
 9372SOL     OW29556   5.391   4.437   6.931  0.4213 -0.3968  0.3504
 9372SOL    HW129557   5.369   4.365   6.989 -0.8183 -0.7068 -0.4796
 9372SOL    HW229558   5.427   4.395   6.853 -0.1877 -0.1140 -0.0863
 9373SOL     OW29559   5.942   0.190   2.540  0.3772 -0.0019  0.3164
 9373SOL    HW129560   5.940   0.140   2.622 -1.9058  1.5157  1.3236
 9373SOL    HW229561   5.907   0.276   2.565  2.4037  1.5088 -1.6879
 9374SOL     OW29562   2.873   1.439  12.230  0.1371 -0.0020  0.0319
 9374SOL    HW129563   2.853   1.531  12.210  1.8492 -0.1582 -3.0874
 9374SOL    HW229564   2.787   1.398  12.244 -0.8851  1.5812 -1.1673
 9375SOL     OW29565   0.530   2.296   5.913  0.1962 -0.3156  0.0345
 9375SOL    HW129566   0.586   2.297   5.991  1.0065 -2.0797 -0.4635
 9375SOL    HW229567   0.456   2.352   5.935  1.1153  0.3690  1.5228
 9376SOL     OW29568   1.626   4.116  11.728  0.3009  0.0808 -0.2182
 9376SOL    HW129569   1.553   4.074  11.774  0.4097 -0.7238 -0.7519
 9376SOL    HW229570   1.588   4.197  11.694 -0.4954 -0.5291 -0.8584
 9377SOL     OW29571   7.767   2.965   6.573 -0.2117 -0.1398  0.3424
 9377SOL    HW129572   7.843   2.951   6.630 -0.0426 -1.2708 -0.1284
 9377SOL    HW229573   7.803   2.958   6.484 -0.5416  1.2095  0.0814
 9378SOL     OW29574   7.666   2.210  11.035  0.1998  0.2909 -0.6353
 9378SOL    HW129575   7.610   2.268  10.983  0.5421 -0.5028 -1.9229
 9378SOL    HW229576   7.609   2.138  11.061  0.4467 -0.1777 -1.3764
 9379SOL     OW29577   4.795   3.420  11.125 -0.3864  0.0899 -0.4509
 9379SOL    HW129578   4.804   3.464  11.041 -1.7221 -1.2634 -1.3609
 9379SOL    HW229579   4.866   3.356  11.126 -1.4211 -1.1148 -1.3885
 9380SOL     OW29580   0.031   5.213   2.392  0.5521  0.1832 -0.2525
 9380SOL    HW129581   0.058   5.215   2.300 -0.7047 -0.1023 -0.6453
 9380SOL    HW229582  -0.005   5.125   2.404 -0.6930  0.7132  0.0824
 9381SOL     OW29583   4.408   5.278   8.129  0.6871  0.1007 -0.4224
 9381SOL    HW129584   4.393   5.282   8.035  1.3774  0.7576 -0.5091
 9381SOL    HW229585   4.365   5.355   8.164  1.7305  0.6830 -0.3886
 9382SOL     OW29586   7.304   0.529   4.593 -0.4417  0.7398  0.2933
 9382SOL    HW129587   7.306   0.437   4.567  1.4833 -0.0290  2.7498
 9382SOL    HW229588   7.220   0.540   4.637 -0.2599 -0.1874  0.9194
 9383SOL     OW29589   3.315   6.726   7.513 -0.0431  0.5213  0.0090
 9383SOL    HW129590   3.404   6.713   7.545  0.1841  1.7280 -0.1060
 9383SOL    HW229591   3.260   6.722   7.591  0.0088 -0.9316  0.0028
 9384SOL     OW29592   2.496   3.245   7.727  0.0056 -0.3622 -0.0857
 9384SOL    HW129593   2.497   3.288   7.641  0.3867 -0.3569 -0.0781
 9384SOL    HW229594   2.403   3.241   7.750  0.0142  1.3389  0.3558
 9385SOL     OW29595   3.085   3.864   7.565  0.0372 -0.2115 -0.5948
 9385SOL    HW129596   3.093   3.874   7.660 -0.9635  0.5069 -0.5763
 9385SOL    HW229597   3.093   3.953   7.531  0.2522 -0.4489 -1.1860
 9386SOL     OW29598   4.680   5.272   4.087  0.5094 -0.1370 -0.2156
 9386SOL    HW129599   4.667   5.364   4.063  0.5197 -0.2455 -0.6425
 9386SOL    HW229600   4.644   5.222   4.014  1.6265 -0.4589 -0.5728
 9387SOL     OW29601   7.918   2.953   5.089  0.2480 -0.3032 -0.3469
 9387SOL    HW129602   8.005   2.975   5.120  1.1916 -0.6982 -2.5217
 9387SOL    HW229603   7.923   2.963   4.994 -2.1945  0.0454 -0.5071
 9388SOL     OW29604   7.012   2.886   4.175  0.3688 -0.4405  0.5211
 9388SOL    HW129605   7.069   2.960   4.194  1.0810 -0.7639 -0.2963
 9388SOL    HW229606   7.068   2.809   4.183  0.2352 -0.7230 -0.9456
 9389SOL     OW29607   4.286   2.553   1.504 -0.1034  0.3054  0.2202
 9389SOL    HW129608   4.202   2.540   1.461  1.0138 -1.5147 -1.5776
 9389SOL    HW229609   4.327   2.625   1.455  0.1001 -0.0193 -0.0948
 9390SOL     OW29610   0.070   3.621   5.623 -0.5987  0.6974 -0.1544
 9390SOL    HW129611   0.021   3.613   5.704  1.2543 -2.1365  0.8181
 9390SOL    HW229612   0.137   3.687   5.641 -0.7815  0.7580  0.3052
 9391SOL     OW29613   0.500   1.402  11.812 -0.2372 -0.0124 -0.1407
 9391SOL    HW129614   0.456   1.338  11.867  0.6698  0.2130  0.8795
 9391SOL    HW229615   0.592   1.395  11.836 -0.0582  1.3229 -0.3682
 9392SOL     OW29616   2.688   0.860   6.856  0.4246  0.5254  0.2144
 9392SOL    HW129617   2.774   0.871   6.817  0.4693  2.0910  0.6786
 9392SOL    HW229618   2.658   0.949   6.874 -0.6108 -0.0501  1.5321
 9393SOL     OW29619   1.296   6.880   5.256 -0.2091 -0.1029 -0.0156
 9393SOL    HW129620   1.264   6.804   5.305  0.3545 -0.2153  0.1825
 9393SOL    HW229621   1.341   6.842   5.180  1.1332 -0.0141  0.7155
 9394SOL     OW29622   0.690   2.592   6.865  0.4814 -0.1137 -0.0393
 9394SOL    HW129623   0.635   2.576   6.942  0.6799  1.2340  0.3930
 9394SOL    HW229624   0.628   2.622   6.798  0.3014 -1.3325 -0.4446
 9395SOL     OW29625   3.591   7.842  12.021 -0.1621 -0.0967  0.0366
 9395SOL    HW129626   3.686   7.847  12.029 -0.1349  2.8488 -1.1318
 9395SOL    HW229627   3.576   7.779  11.950  0.9228 -0.0641 -0.2385
 9396SOL     OW29628   4.619   5.106  12.263 -0.0859  0.0716 -0.1672
 9396SOL    HW129629   4.577   5.096  12.177  1.0827 -0.8471 -0.6519
 9396SOL    HW229630   4.646   5.198  12.265 -0.4229  0.1895 -0.6341
 9397SOL     OW29631   2.909   5.342   0.586  0.4080  0.2358  0.4278
 9397SOL    HW129632   2.909   5.256   0.544  0.4201  0.4974 -0.1068
 9397SOL    HW229633   2.854   5.330   0.664  0.0872 -0.1555  0.1436
 9398SOL     OW29634   1.039   6.614   1.528 -0.3175 -0.0417 -1.0787
 9398SOL    HW129635   1.116   6.617   1.585 -0.5963  0.7266 -0.7310
 9398SOL    HW229636   1.032   6.703   1.494 -1.8891  0.2863  0.0138
 9399SOL     OW29637   2.129   6.208   8.490  0.1124 -0.3121 -0.2500
 9399SOL    HW129638   2.164   6.128   8.531 -0.3251  0.3900  1.5903
 9399SOL    HW229639   2.181   6.218   8.410  0.8259 -1.9103 -0.0340
 9400SOL     OW29640   6.515   6.453   1.734  0.0813 -0.0242 -0.0642
 9400SOL    HW129641   6.581   6.386   1.751 -0.6431 -0.8820 -0.5948
 9400SOL    HW229642   6.520   6.511   1.810 -1.1721 -2.2099  1.8285
 9401SOL     OW29643   1.044   7.374   5.501  0.1759  0.1355  0.4132
 9401SOL    HW129644   1.041   7.280   5.520  0.3516 -0.3339 -1.6128
 9401SOL    HW229645   1.131   7.402   5.531  0.5735 -0.6189  0.0001
 9402SOL     OW29646   6.380   5.844   6.188 -0.2174 -0.0370 -0.0626
 9402SOL    HW129647   6.411   5.878   6.104 -1.6329  1.1044 -0.1610
 9402SOL    HW229648   6.451   5.864   6.249  0.6583 -0.5236 -0.8948
 9403SOL     OW29649   2.549   7.771   2.476 -0.1232 -0.3568  0.3333
 9403SOL    HW129650   2.626   7.763   2.419 -1.3390  2.4495 -2.0130
 9403SOL    HW229651   2.479   7.727   2.427 -0.5885 -0.5013  1.1183
 9404SOL     OW29652   1.918   0.608   7.595 -0.3946  0.2205  0.0177
 9404SOL    HW129653   1.965   0.524   7.598 -0.1350  0.3651  0.0424
 9404SOL    HW229654   1.961   0.657   7.525  0.1503  0.7396  0.6984
 9405SOL     OW29655   1.101   2.088   3.637 -0.2937 -0.2315 -0.3538
 9405SOL    HW129656   1.185   2.088   3.591  0.7902 -1.1634  1.5119
 9405SOL    HW229657   1.061   2.005   3.613 -0.2569 -0.2033 -0.5147
 9406SOL     OW29658   0.468   7.026   2.566 -0.2155 -0.3874  0.2844
 9406SOL    HW129659   0.432   7.110   2.536  0.1334 -0.2387  0.2873
 9406SOL    HW229660   0.463   6.970   2.488 -1.0746 -0.5757  0.4561
 9407SOL     OW29661   2.770   2.361  11.430  0.5692 -0.4443  0.2666
 9407SOL    HW129662   2.820   2.425  11.480  1.4786 -0.6114 -0.3955
 9407SOL    HW229663   2.801   2.276  11.463 -1.1505 -0.5912  1.6592
 9408SOL     OW29664   4.692   2.002   8.613  0.0967 -0.5087  0.2339
 9408SOL    HW129665   4.635   2.060   8.665 -1.9912 -1.1613 -1.2144
 9408SOL    HW229666   4.737   2.061   8.553 -1.4799 -0.2162 -0.7436
 9409SOL     OW29667   2.030   7.123   6.109  0.1288  0.5946  0.1776
 9409SOL    HW129668   2.009   7.059   6.178  0.2004  0.7833  0.3769
 9409SOL    HW229669   2.123   7.142   6.122  0.1169  0.7103  0.0940
 9410SOL     OW29670   3.752   2.287   9.153 -0.4841  0.1952 -0.5667
 9410SOL    HW129671   3.718   2.290   9.242  0.0851  2.0471 -0.3836
 9410SOL    HW229672   3.792   2.200   9.146  1.3191  0.7247  1.7336
 9411SOL     OW29673   4.780   6.103   9.623  1.3326 -0.1463  0.5144
 9411SOL    HW129674   4.766   6.009   9.612  1.3583 -0.1043  0.1229
 9411SOL    HW229675   4.849   6.109   9.689 -0.9994 -0.3524  3.1748
 9412SOL     OW29676   1.419   0.216   3.373 -0.3730  0.1718 -0.0214
 9412SOL    HW129677   1.467   0.134   3.374 -0.3249  0.1516 -1.4497
 9412SOL    HW229678   1.355   0.206   3.302 -1.9047  0.5304  1.2557
 9413SOL     OW29679   4.218   3.735   8.576  0.0595 -0.0674  0.0358
 9413SOL    HW129680   4.182   3.700   8.658  0.1348  1.2606  0.6620
 9413SOL    HW229681   4.267   3.662   8.539 -0.2076 -0.7825  1.0432
 9414SOL     OW29682   0.385   4.399   1.998 -0.6007  0.0362  0.4069
 9414SOL    HW129683   0.459   4.339   1.996 -0.2993  0.4186 -0.3700
 9414SOL    HW229684   0.368   4.420   1.906 -1.5528  0.1081  0.5807
 9415SOL     OW29685   3.074   5.797   0.151  0.5959  0.1581 -0.5798
 9415SOL    HW129686   3.091   5.755   0.236  0.7047 -1.3520 -1.3144
 9415SOL    HW229687   3.138   5.757   0.092  0.4344  1.1084 -1.4113
 9416SOL     OW29688   2.310   7.886   5.203 -0.3664 -0.1325 -0.7454
 9416SOL    HW129689   2.367   7.938   5.261 -0.5430 -0.4578 -0.2697
 9416SOL    HW229690   2.346   7.900   5.115  1.4289 -1.5381 -0.3054
 9417SOL     OW29691   7.720   3.308   6.463 -0.0670 -0.0660 -0.0471
 9417SOL    HW129692   7.735   3.237   6.401 -1.3984 -0.3720 -0.0415
 9417SOL    HW229693   7.808   3.339   6.486  0.4911 -1.0367 -0.8173
 9418SOL     OW29694   5.548   5.811   9.680  0.1959  0.4614  0.1291
 9418SOL    HW129695   5.642   5.826   9.665  0.6542 -2.2800 -0.3024
 9418SOL    HW229696   5.513   5.790   9.593 -1.2902  3.2075 -0.0513
 9419SOL     OW29697   6.711   1.237   9.250  0.9557 -0.2576  0.0794
 9419SOL    HW129698   6.753   1.276   9.327  0.1211 -0.9520  0.9056
 9419SOL    HW229699   6.783   1.222   9.188  1.8695 -1.0129  1.2857
 9420SOL     OW29700   3.438   3.290  11.413  0.5410 -0.3536  0.6843
 9420SOL    HW129701   3.501   3.286  11.341  0.2908 -1.4092  0.4989
 9420SOL    HW229702   3.371   3.352  11.384  0.1577 -1.1807 -0.2377
 9421SOL     OW29703   6.947   1.845  12.117 -0.3068  0.1498 -0.0829
 9421SOL    HW129704   7.035   1.859  12.085 -0.0630  0.1156  0.5568
 9421SOL    HW229705   6.903   1.929  12.108 -1.0077 -0.3978 -2.7405
 9422SOL     OW29706   2.269   0.747   8.462 -0.2565  0.1606  0.3379
 9422SOL    HW129707   2.188   0.706   8.493 -0.5377  0.7375  0.3702
 9422SOL    HW229708   2.278   0.716   8.372 -0.8587  0.6071  0.1221
 9423SOL     OW29709   1.996   6.622  11.210 -0.1975 -0.0552  0.2335
 9423SOL    HW129710   2.077   6.668  11.189 -0.3514  0.6841  1.2130
 9423SOL    HW229711   1.941   6.633  11.132  0.5715 -0.4268 -0.3686
 9424SOL     OW29712   6.913   4.749   3.638  0.0351  0.5588 -0.0743
 9424SOL    HW129713   6.969   4.672   3.626 -0.3335 -0.0349  1.6628
 9424SOL    HW229714   6.964   4.821   3.603  1.1247 -0.2390 -0.2016
 9425SOL     OW29715   6.106   5.692   2.736 -0.3630  0.2226  0.4434
 9425SOL    HW129716   6.141   5.703   2.648 -1.8363  0.5007 -0.1360
 9425SOL    HW229717   6.106   5.597   2.751  0.0739  0.1883  0.2242
 9426SOL     OW29718   1.279   7.866  12.009  0.3714 -0.0014 -0.5914
 9426SOL    HW129719   1.242   7.802  11.948 -0.1322 -0.4123  0.1187
 9426SOL    HW229720   1.349   7.819  12.054 -0.7109 -0.4518  0.7159
 9427SOL     OW29721   5.129   0.803  11.070 -0.3387 -0.0266 -0.4323
 9427SOL    HW129722   5.066   0.765  11.131 -0.5795 -0.6680 -1.0714
 9427SOL    HW229723   5.195   0.734  11.057  0.5044  0.6263  0.2147
 9428SOL     OW29724   1.735   6.947   9.347 -0.3919  0.0967  0.0992
 9428SOL    HW129725   1.705   6.857   9.355  0.6940 -0.3319 -0.4950
 9428SOL    HW229726   1.677   6.997   9.406 -0.9409 -0.9862  0.5000
 9429SOL     OW29727   5.137   0.634   4.891 -0.1233 -0.2403  0.0801
 9429SOL    HW129728   5.173   0.548   4.915  1.1631  0.1152 -0.4981
 9429SOL    HW229729   5.200   0.697   4.925 -0.6707  0.4569 -0.1673
 9430SOL     OW29730   7.871   7.147   4.779  0.3008 -0.4227  0.6290
 9430SOL    HW129731   7.947   7.203   4.796 -0.2547  0.9051 -0.9095
 9430SOL    HW229732   7.905   7.058   4.781  1.8700  0.1311  0.2044
 9431SOL     OW29733   3.851   5.162   1.197 -0.5214 -0.3078 -0.2131
 9431SOL    HW129734   3.760   5.135   1.185 -0.8842  0.6885  0.1550
 9431SOL    HW229735   3.883   5.110   1.271 -0.9224 -0.3710 -0.0861
 9432SOL     OW29736   6.280   5.603   6.049 -0.4101 -0.0552  0.2410
 9432SOL    HW129737   6.221   5.612   5.975  0.7446 -1.0843 -0.8598
 9432SOL    HW229738   6.286   5.691   6.086 -0.2031  0.7098 -1.5333
 9433SOL     OW29739   3.289   5.481  11.528 -0.5145  0.0968 -0.2109
 9433SOL    HW129740   3.223   5.463  11.461 -0.7193  1.3597 -0.3701
 9433SOL    HW229741   3.240   5.519  11.601 -0.7153 -3.6487  1.8340
 9434SOL     OW29742   1.159   6.914   9.259  0.0408 -0.0750  0.7550
 9434SOL    HW129743   1.093   6.983   9.262  0.7056  0.5457  2.9847
 9434SOL    HW229744   1.112   6.835   9.287 -0.4446 -0.3155 -0.6723
 9435SOL     OW29745   6.939   6.395   4.216  0.2801 -0.3700 -0.0756
 9435SOL    HW129746   6.857   6.345   4.223 -0.0416 -0.0420 -1.1870
 9435SOL    HW229747   6.967   6.408   4.306 -0.2954 -1.4700  0.2847
 9436SOL     OW29748   5.722   1.961   0.470  0.1585 -0.1166 -0.0474
 9436SOL    HW129749   5.798   1.993   0.519 -0.2245 -0.5448  0.8479
 9436SOL    HW229750   5.758   1.927   0.388  0.5934  2.6831 -1.1353
 9437SOL     OW29751   1.893   7.406   8.332  0.2516  0.0895 -0.1084
 9437SOL    HW129752   1.885   7.321   8.375  0.2237 -0.2568 -0.7761
 9437SOL    HW229753   1.987   7.425   8.332  0.1590  0.6698  1.1675
 9438SOL     OW29754   1.683   0.047   0.183  0.2491  0.5326 -0.3156
 9438SOL    HW129755   1.593   0.042   0.148 -0.0870 -3.7719  0.6678
 9438SOL    HW229756   1.738   0.035   0.106 -0.2779 -1.9988 -0.3783
 9439SOL     OW29757   7.357   4.543  10.703  0.1425  0.0021  0.3278
 9439SOL    HW129758   7.381   4.611  10.765  0.9149 -1.1364  1.3276
 9439SOL    HW229759   7.430   4.539  10.642  0.5792 -0.6081  0.8779
 9440SOL     OW29760   0.412   6.107  11.548  0.4571 -0.0150 -0.3504
 9440SOL    HW129761   0.484   6.101  11.485  0.1290  1.6409 -0.9410
 9440SOL    HW229762   0.372   6.020  11.547  1.2715 -0.3990 -1.4502
 9441SOL     OW29763   0.964   4.599  10.954 -0.6685 -0.2160  0.8884
 9441SOL    HW129764   0.915   4.601  10.872  0.0889 -0.8916  0.4029
 9441SOL    HW229765   0.903   4.631  11.020 -1.2193  0.5664  0.0259
 9442SOL     OW29766   4.202   2.981   7.662  0.3164  0.0007  0.1929
 9442SOL    HW129767   4.130   2.937   7.617  0.0264  1.4049 -0.7638
 9442SOL    HW229768   4.170   2.994   7.751 -0.5460  0.4333 -0.1708
 9443SOL     OW29769   1.886   2.176   6.273 -0.5826 -0.3960 -0.0068
 9443SOL    HW129770   1.919   2.179   6.183 -1.8222 -1.0815 -0.5199
 9443SOL    HW229771   1.798   2.212   6.268 -0.5662 -0.1767  0.9988
 9444SOL     OW29772   2.431   2.458   6.226 -0.2116  0.0709  0.4844
 9444SOL    HW129773   2.471   2.454   6.313 -2.8254  1.4837  1.8968
 9444SOL    HW229774   2.367   2.387   6.226  2.1434 -2.2512 -1.7784
 9445SOL     OW29775   1.442   3.195   3.026 -0.0809 -0.1990 -0.3218
 9445SOL    HW129776   1.403   3.256   3.089 -1.4804 -0.7654 -0.5972
 9445SOL    HW229777   1.486   3.130   3.080 -0.9986 -0.5037  0.0784
 9446SOL     OW29778   3.455   6.688   1.954 -0.2722  0.0939  0.0392
 9446SOL    HW129779   3.417   6.775   1.970 -1.5169 -0.4316  0.0647
 9446SOL    HW229780   3.540   6.691   1.997 -0.8707  0.8635  1.2468
 9447SOL     OW29781   2.561   7.285   8.727  0.1730 -0.2555  0.1106
 9447SOL    HW129782   2.571   7.238   8.809 -0.5662  1.3134  1.1557
 9447SOL    HW229783   2.565   7.378   8.752  2.1477  0.2910 -1.9129
 9448SOL     OW29784   4.193   5.086   1.281  0.3257  0.1304  0.0904
 9448SOL    HW129785   4.257   5.030   1.238  0.5567  0.8128 -0.4704
 9448SOL    HW229786   4.206   5.172   1.242 -1.5441  0.1035 -0.6875
 9449SOL     OW29787   5.597   0.361   4.954  0.1360  0.4219  0.1807
 9449SOL    HW129788   5.656   0.423   4.911  0.9320 -0.1785  0.3673
 9449SOL    HW229789   5.655   0.304   5.005 -0.7962  1.1157  2.0821
 9450SOL     OW29790   7.602   4.394   7.766  0.0175  0.1388  0.6141
 9450SOL    HW129791   7.543   4.370   7.694 -0.7195  1.3548  0.7948
 9450SOL    HW229792   7.559   4.362   7.845  2.0496 -3.6346  0.4589
 9451SOL     OW29793   4.628   3.307  10.440  0.0232 -0.8438  0.9086
 9451SOL    HW129794   4.652   3.366  10.369  1.6342 -0.9930  1.2997
 9451SOL    HW229795   4.538   3.281  10.419 -0.4181  1.0078  0.2463
 9452SOL     OW29796   1.896   7.217  12.290 -0.2990 -0.3855  0.0185
 9452SOL    HW129797   1.893   7.302  12.334  1.1713 -0.4341  0.2646
 9452SOL    HW229798   1.876   7.237  12.199  0.4303  0.2974 -0.0066
 9453SOL     OW29799   3.513   4.858   3.506 -0.0322 -0.1749 -0.1453
 9453SOL    HW129800   3.503   4.949   3.534 -0.3820 -0.2475 -0.0258
 9453SOL    HW229801   3.430   4.838   3.463  0.3724 -0.1669 -0.9455
 9454SOL     OW29802   5.277   7.201  10.895  0.5735  0.6908 -0.0536
 9454SOL    HW129803   5.294   7.232  10.805  0.9376 -0.7923 -0.5229
 9454SOL    HW229804   5.214   7.130  10.885 -0.8097  1.6938  1.0751
 9455SOL     OW29805   5.829   3.383   4.162  0.1094 -0.0198 -0.0070
 9455SOL    HW129806   5.843   3.338   4.245 -1.1780  0.3431  0.4328
 9455SOL    HW229807   5.812   3.474   4.186  3.7716  1.1064 -0.9380
 9456SOL     OW29808   5.100   6.525   8.206  0.5659  0.0826 -0.4217
 9456SOL    HW129809   5.035   6.576   8.254  0.3795 -0.3371 -0.2152
 9456SOL    HW229810   5.093   6.437   8.244 -0.8087 -0.7074 -2.3726
 9457SOL     OW29811   3.423   5.168   1.408  0.6381 -0.0093 -0.2845
 9457SOL    HW129812   3.423   5.076   1.382 -0.5318 -0.2156  0.3951
 9457SOL    HW229813   3.409   5.167   1.503 -1.0832  0.8862 -0.4799
 9458SOL     OW29814   4.795   0.738   3.318 -0.2840 -0.1286 -0.1379
 9458SOL    HW129815   4.840   0.702   3.242  1.1435  0.6086  0.3053
 9458SOL    HW229816   4.810   0.675   3.388 -1.7806 -0.9128 -0.4890
 9459SOL     OW29817   0.161   2.992  10.321 -0.2370  0.0841 -0.1745
 9459SOL    HW129818   0.092   3.058  10.326 -0.4671 -0.2410  1.2127
 9459SOL    HW229819   0.212   3.004  10.400 -0.3867 -1.5057  0.1996
 9460SOL     OW29820   7.270   6.214   6.019  0.1634 -0.0274  0.0227
 9460SOL    HW129821   7.314   6.147   5.967  0.1039 -0.1497  0.1311
 9460SOL    HW229822   7.340   6.276   6.042  0.2416 -0.1170  0.0288
 9461SOL     OW29823   5.755   5.206   9.830  0.0371  0.0861 -0.1608
 9461SOL    HW129824   5.807   5.126   9.829  0.4630  0.3623 -0.2855
 9461SOL    HW229825   5.761   5.237   9.921  1.2691  0.8725 -0.4875
 9462SOL     OW29826   5.748   0.162   7.940  0.0972 -0.5617  0.3062
 9462SOL    HW129827   5.725   0.255   7.943  0.8543 -0.3179 -0.7376
 9462SOL    HW229828   5.699   0.123   8.013 -1.3071  0.4035 -0.0646
 9463SOL     OW29829   1.030   2.815   9.340 -0.2033  0.5211 -0.0285
 9463SOL    HW129830   1.119   2.798   9.371  0.7433  0.5170 -2.5414
 9463SOL    HW229831   1.018   2.909   9.350  1.0507  0.9237 -1.8734
 9464SOL     OW29832   5.276   2.710  10.781  0.0941 -0.0419  0.1079
 9464SOL    HW129833   5.364   2.678  10.799  0.6362  1.8707  1.1259
 9464SOL    HW229834   5.220   2.633  10.791  1.4963 -1.0226  0.7073
 9465SOL     OW29835   0.027   0.090   8.626  0.8045 -0.0096  0.0763
 9465SOL    HW129836   0.077   0.010   8.608  1.5374  0.3411  0.5054
 9465SOL    HW229837  -0.028   0.066   8.701 -1.4313 -1.1180 -1.7788
 9466SOL     OW29838   5.244   6.220   1.119  0.1518  0.0028  0.0136
 9466SOL    HW129839   5.300   6.239   1.044  0.3803  0.4603  0.2984
 9466SOL    HW229840   5.155   6.234   1.087  0.0760 -2.1622 -0.8790
 9467SOL     OW29841   6.424   3.334   1.554  0.7104  0.3313  0.0149
 9467SOL    HW129842   6.357   3.334   1.486  0.8469 -1.1632 -0.1481
 9467SOL    HW229843   6.472   3.416   1.540  0.0485  0.5680 -0.9815
 9468SOL     OW29844   6.240   3.669   2.401 -0.1591 -0.0042  0.5900
 9468SOL    HW129845   6.278   3.667   2.488  0.1304  0.7855  0.4908
 9468SOL    HW229846   6.260   3.757   2.368 -0.1130 -0.3519 -0.3350
 9469SOL     OW29847   2.002   6.415  11.383 -0.1589  0.2575 -0.2025
 9469SOL    HW129848   1.952   6.485  11.342 -2.1656 -1.2707 -0.5319
 9469SOL    HW229849   2.024   6.356  11.311 -0.7521 -0.7275  0.3961
 9470SOL     OW29850   4.612   6.896  11.617  0.0070  0.0602  0.1502
 9470SOL    HW129851   4.643   6.912  11.706 -0.2114  2.8553 -0.1876
 9470SOL    HW229852   4.522   6.929  11.617 -0.4085 -1.0257 -0.8098
 9471SOL     OW29853   3.788   7.671   3.684 -0.3551  0.1910  0.5288
 9471SOL    HW129854   3.820   7.596   3.734 -1.2540  0.5377  1.6687
 9471SOL    HW229855   3.743   7.632   3.609  0.5790 -0.3492  0.2213
 9472SOL     OW29856   5.509   1.597   3.546 -0.1184 -0.1383 -0.4621
 9472SOL    HW129857   5.544   1.625   3.462  0.8047  1.8449  0.5257
 9472SOL    HW229858   5.573   1.626   3.610 -1.6629  0.0534  1.0782
 9473SOL     OW29859   3.160   6.039  12.379 -0.1711  0.2147  0.1109
 9473SOL    HW129860   3.251   6.068  12.375 -0.2074  0.4290  0.6967
 9473SOL    HW229861   3.125   6.082  12.456 -0.4323 -0.8093  0.5892
 9474SOL     OW29862   5.405   2.474   0.606 -0.5559 -0.2760  0.2205
 9474SOL    HW129863   5.416   2.449   0.698 -0.8610 -0.5906  0.1752
 9474SOL    HW229864   5.427   2.567   0.604  0.8496 -0.5891  0.3478
 9475SOL     OW29865   1.312   6.749   9.429 -0.0754  0.1188  0.5497
 9475SOL    HW129866   1.404   6.725   9.435 -0.2931 -0.6059  1.3793
 9475SOL    HW229867   1.311   6.831   9.381  0.8949 -0.4911 -0.5551
 9476SOL     OW29868   4.617   3.217  12.346 -0.0553 -0.2116 -0.4972
 9476SOL    HW129869   4.577   3.282  12.405  0.0470 -0.0447 -0.6101
 9476SOL    HW229870   4.710   3.218  12.369 -0.0755 -0.4238 -0.4003
 9477SOL     OW29871   3.595   0.520   6.364 -0.2506 -0.1632  0.0588
 9477SOL    HW129872   3.503   0.531   6.341 -0.0910 -1.7137 -1.5179
 9477SOL    HW229873   3.634   0.476   6.288  1.3899 -1.1750  1.4041
 9478SOL     OW29874   2.482   6.649   2.856 -0.1533 -0.0101  0.2379
 9478SOL    HW129875   2.399   6.667   2.813  0.5169  0.2153 -1.0273
 9478SOL    HW229876   2.472   6.682   2.945 -1.6995 -0.7850  0.3709
 9479SOL     OW29877   5.107   1.747   1.802 -0.0534 -0.6616 -0.3889
 9479SOL    HW129878   5.181   1.787   1.847 -0.8301  1.5360 -0.9533
 9479SOL    HW229879   5.040   1.736   1.870 -0.1659 -0.1213 -0.4106
 9480SOL     OW29880   4.401   7.160  10.424  0.1173 -0.7548 -0.2785
 9480SOL    HW129881   4.430   7.069  10.427 -0.8908 -1.0692  1.6784
 9480SOL    HW229882   4.389   7.185  10.516 -2.5717  0.3451 -0.8331
 9481SOL     OW29883   3.327   7.320   1.001 -0.3333  0.3297 -0.3907
 9481SOL    HW129884   3.388   7.393   0.991 -0.8482  0.9649  0.8645
 9481SOL    HW229885   3.242   7.357   0.977 -0.1687 -0.7708 -2.9408
 9482SOL     OW29886   0.077   7.066   9.255 -0.3105 -0.6409  0.3335
 9482SOL    HW129887   0.011   7.114   9.305 -0.3362  0.4366 -0.6779
 9482SOL    HW229888   0.122   7.013   9.320  0.5143  1.6517  1.7623
 9483SOL     OW29889   5.869   7.358   2.995 -0.4345 -0.5792 -0.1259
 9483SOL    HW129890   5.791   7.404   2.964 -0.6311 -0.1545  0.9490
 9483SOL    HW229891   5.857   7.352   3.089  1.7059  1.2484  0.3592
 9484SOL     OW29892   0.803   5.370  10.491 -0.0042 -0.1501  0.5151
 9484SOL    HW129893   0.797   5.366  10.586  0.0762 -2.2843  0.4818
 9484SOL    HW229894   0.887   5.330  10.470  0.5774  1.4480 -0.4466
 9485SOL     OW29895   3.147   3.378   8.531  0.3019 -0.0409 -0.5743
 9485SOL    HW129896   3.219   3.372   8.468 -0.5409  1.0610 -1.6939
 9485SOL    HW229897   3.073   3.337   8.486  0.1937 -1.1712  0.5704
 9486SOL     OW29898   2.947   1.465   6.650 -0.6915 -0.4507 -0.3189
 9486SOL    HW129899   2.960   1.457   6.745 -0.9608  0.5774 -0.1796
 9486SOL    HW229900   3.029   1.433   6.612  2.0892  4.5384  0.4945
 9487SOL     OW29901   5.618   0.538  10.432  0.0530  0.2690 -0.3093
 9487SOL    HW129902   5.657   0.619  10.465  1.6704 -1.0866  1.3113
 9487SOL    HW229903   5.525   0.559  10.419  0.8057  2.9768 -2.1319
 9488SOL     OW29904   7.916   2.181  10.579  0.1517 -0.3867  0.3760
 9488SOL    HW129905   7.910   2.088  10.560  0.0073 -0.3426  0.2029
 9488SOL    HW229906   7.879   2.224  10.502  0.4990 -0.1796  0.3193
 9489SOL     OW29907   1.197   2.294   8.918  0.0855 -0.0964  0.7328
 9489SOL    HW129908   1.292   2.289   8.905 -0.0354 -0.9547  0.1147
 9489SOL    HW229909   1.174   2.212   8.960 -0.6067 -0.6736 -0.6814
 9490SOL     OW29910   2.257   5.233   7.845  0.4124 -0.0048  0.6209
 9490SOL    HW129911   2.207   5.152   7.857  0.4288 -0.3211 -1.1137
 9490SOL    HW229912   2.337   5.220   7.894 -0.7837  0.1451  2.7288
 9491SOL     OW29913   1.769   5.613   3.008 -0.0442 -0.0581  0.0292
 9491SOL    HW129914   1.787   5.647   2.920 -0.2664 -1.7613 -0.7130
 9491SOL    HW229915   1.675   5.626   3.020  0.0872  0.7036  0.2600
 9492SOL     OW29916   4.019   5.601   3.041 -0.0472  0.4357 -0.0770
 9492SOL    HW129917   4.106   5.636   3.024  0.3996 -0.7274 -0.2693
 9492SOL    HW229918   3.982   5.584   2.955 -0.6033  1.2244 -0.0050
 9493SOL     OW29919   1.296   4.520   9.984  0.4728 -0.0072 -0.0263
 9493SOL    HW129920   1.284   4.589   9.919  0.0200 -0.1836 -0.1341
 9493SOL    HW229921   1.326   4.445   9.934  0.5193 -0.0226  0.0244
 9494SOL     OW29922   6.243   0.284   5.460 -0.4164  0.0676 -0.5735
 9494SOL    HW129923   6.244   0.204   5.409 -0.9451 -1.1617  1.2342
 9494SOL    HW229924   6.334   0.314   5.459 -0.4944  0.3324 -2.5295
 9495SOL     OW29925   2.570   7.454   7.823 -0.1226  0.5522 -0.1827
 9495SOL    HW129926   2.532   7.371   7.797 -0.0557  0.1681  0.8859
 9495SOL    HW229927   2.510   7.520   7.788 -1.0283 -0.0021  0.2889
 9496SOL     OW29928   4.645   7.380   1.290  0.1255 -0.3029  0.3102
 9496SOL    HW129929   4.596   7.451   1.330 -1.8038 -1.4453  0.1232
 9496SOL    HW229930   4.579   7.328   1.244  1.7170 -1.2064 -1.0801
 9497SOL     OW29931   1.000   2.482   7.717  0.0253  0.4435  0.0741
 9497SOL    HW129932   0.911   2.515   7.707  0.6375  1.9842 -0.6512
 9497SOL    HW229933   1.010   2.466   7.811 -1.1130 -0.1113  0.1193
 9498SOL     OW29934   3.476   0.267   8.191 -0.1167 -0.5079 -0.0844
 9498SOL    HW129935   3.419   0.343   8.206 -0.4996 -0.7033 -0.4999
 9498SOL    HW229936   3.508   0.243   8.278  0.6870  0.6374 -0.0420
 9499SOL     OW29937   2.374   2.824   8.537  0.1310  0.1817 -0.0531
 9499SOL    HW129938   2.433   2.821   8.612  0.3280 -0.0279 -0.2154
 9499SOL    HW229939   2.316   2.749   8.548 -0.3642  0.6033  0.3102
 9500SOL     OW29940   5.714   5.000   8.308 -0.0315  0.2383 -0.1749
 9500SOL    HW129941   5.771   5.073   8.333  0.9219 -0.4037 -0.4349
 9500SOL    HW229942   5.659   5.036   8.238  0.9149  0.5128 -0.7933
 9501SOL     OW29943   2.441   0.668   2.947 -0.1525 -0.5490 -0.4716
 9501SOL    HW129944   2.405   0.757   2.945  1.1861  0.0072 -0.2350
 9501SOL    HW229945   2.511   0.669   2.882  0.9552 -0.9517  0.6782
 9502SOL     OW29946   7.899   4.986   2.223 -0.2865 -0.4427 -0.2005
 9502SOL    HW129947   7.885   4.953   2.134  0.4076  0.6507 -0.7438
 9502SOL    HW229948   7.824   4.955   2.273 -1.1328 -0.3628 -1.3807
 9503SOL     OW29949   6.016   0.742   2.734  0.4232  0.4923 -0.2390
 9503SOL    HW129950   6.015   0.836   2.752 -1.1229  0.0767  2.4622
 9503SOL    HW229951   6.098   0.710   2.771  0.3498  0.5971  0.0117
 9504SOL     OW29952   2.698   2.624   2.753 -0.6223 -0.3029 -0.4721
 9504SOL    HW129953   2.772   2.651   2.807 -1.0262 -0.8949  0.4020
 9504SOL    HW229954   2.661   2.706   2.720 -2.0961  0.3488  2.4844
 9505SOL     OW29955   1.538   2.415  11.876  0.4797  0.1334  0.5592
 9505SOL    HW129956   1.525   2.342  11.816 -0.8556 -0.4025  1.4594
 9505SOL    HW229957   1.571   2.374  11.957 -1.6680  0.2884  1.5766
 9506SOL     OW29958   0.110   7.630   3.612  0.2397 -0.0122  0.0098
 9506SOL    HW129959   0.134   7.715   3.575  0.6481 -0.7801 -1.5694
 9506SOL    HW229960   0.031   7.605   3.564  0.3552 -0.7038  0.1701
 9507SOL     OW29961   3.202   1.695   6.364  0.0057  0.9058  0.0908
 9507SOL    HW129962   3.268   1.739   6.311  0.2807  0.1627 -0.1857
 9507SOL    HW229963   3.136   1.666   6.302 -0.3199  1.1723  0.3071
 9508SOL     OW29964   0.366   1.355   3.668 -0.1772 -0.0452  0.2812
 9508SOL    HW129965   0.309   1.381   3.596  0.0069  0.4375  0.3025
 9508SOL    HW229966   0.454   1.372   3.636 -0.1270  0.9602  0.9191
 9509SOL     OW29967   7.251   2.832   9.537  0.7640 -0.3777  0.3574
 9509SOL    HW129968   7.195   2.799   9.608 -0.3115  1.1427  0.2710
 9509SOL    HW229969   7.214   2.795   9.457 -0.1999  0.6488  0.2970
 9510SOL     OW29970   7.288   2.987   2.392  0.2025  0.1287 -0.3250
 9510SOL    HW129971   7.276   3.069   2.441 -2.3008 -0.9006  0.9642
 9510SOL    HW229972   7.353   2.939   2.442 -0.5652  0.0983  0.6767
 9511SOL     OW29973   1.886   4.399   5.428  0.2770  0.0050  0.3058
 9511SOL    HW129974   1.931   4.381   5.346 -0.3701  1.3806 -0.3857
 9511SOL    HW229975   1.805   4.349   5.422  0.6748 -0.6851  0.5617
 9512SOL     OW29976   1.962   0.115   6.982  0.6064 -0.2451  0.0646
 9512SOL    HW129977   2.006   0.153   6.906 -0.2648 -1.6683 -1.1996
 9512SOL    HW229978   1.883   0.168   6.994  0.2112 -0.6449 -0.6954
 9513SOL     OW29979   5.739   4.060   6.834 -1.0164  0.5272  0.2825
 9513SOL    HW129980   5.753   3.966   6.822 -1.4621  0.4924  0.0392
 9513SOL    HW229981   5.765   4.076   6.925 -1.2245  0.1123  0.4208
 9514SOL     OW29982   6.099   5.015   3.893 -0.2415  0.0397 -0.8803
 9514SOL    HW129983   6.146   4.933   3.878 -0.7647 -0.5207  0.4492
 9514SOL    HW229984   6.009   4.995   3.868 -0.9930 -0.7090  2.0911
 9515SOL     OW29985   4.343   5.632  11.534 -0.0156 -0.5381 -0.0450
 9515SOL    HW129986   4.398   5.600  11.606  1.1740 -0.2229 -0.7866
 9515SOL    HW229987   4.273   5.679  11.578  0.0318 -1.3408  0.9488
 9516SOL     OW29988   2.162   4.095   0.162  0.6892  0.6655 -0.2965
 9516SOL    HW129989   2.124   4.007   0.150  1.1187  0.4808 -0.3259
 9516SOL    HW229990   2.173   4.103   0.257  1.8026  0.1818 -0.3636
 9517SOL     OW29991   0.535   4.589   5.511 -0.2943  0.0092  0.0341
 9517SOL    HW129992   0.498   4.535   5.581 -1.2453 -1.0587 -1.2517
 9517SOL    HW229993   0.503   4.677   5.530  1.0204  0.1292  1.9862
 9518SOL     OW29994   6.614   2.570  11.741 -0.2380  0.0177  0.5664
 9518SOL    HW129995   6.699   2.611  11.725  0.4391 -1.5058  0.0618
 9518SOL    HW229996   6.614   2.492  11.686 -1.6681 -0.4112  1.1291
 9519SOL     OW29997   5.646   7.258   7.925 -0.0469  0.3768  0.2017
 9519SOL    HW129998   5.719   7.262   7.986  0.0325  2.1698  0.0489
 9519SOL    HW229999   5.656   7.174   7.880  1.0535 -0.0555  1.2241
 9520SOL     OW30000   4.325   7.574   0.448 -0.3177 -0.2162 -0.1078
 9520SOL    HW130001   4.416   7.546   0.458 -0.2851 -0.0547  0.0475
 9520SOL    HW230002   4.304   7.616   0.531 -0.8697 -1.1942  0.2615
 9521SOL     OW30003   1.567   4.953   3.093 -0.1262 -0.1613 -0.3533
 9521SOL    HW130004   1.555   4.861   3.069 -1.5437 -0.0573 -0.1584
 9521SOL    HW230005   1.509   4.965   3.169  0.1078  0.8635 -0.3285
 9522SOL     OW30006   0.300   0.018   0.094 -0.1780 -0.2430  0.1337
 9522SOL    HW130007   0.325   0.103   0.129 -0.8560 -0.8382  2.2023
 9522SOL    HW230008   0.383  -0.030   0.087  0.0970  0.2653 -0.1706
 9523SOL     OW30009   4.451   5.165   3.650  0.5966  0.2333  0.3992
 9523SOL    HW130010   4.504   5.176   3.571 -0.3345  0.9665 -0.1389
 9523SOL    HW230011   4.373   5.118   3.621  1.4433 -1.9007  1.4111
 9524SOL     OW30012   2.126   0.477   5.857 -0.1391  0.6376  0.0372
 9524SOL    HW130013   2.121   0.558   5.805  0.2767  1.2794  0.9838
 9524SOL    HW230014   2.043   0.475   5.905  0.5931  1.4615  1.3869
 9525SOL     OW30015   5.334   1.334   2.378 -0.5429 -0.1768  0.3927
 9525SOL    HW130016   5.298   1.359   2.463 -0.0284  2.8508 -0.1859
 9525SOL    HW230017   5.288   1.390   2.315  1.3465 -0.0361 -0.9465
 9526SOL     OW30018   6.179   3.265   5.048  0.2153 -0.5453  0.6677
 9526SOL    HW130019   6.245   3.198   5.027 -0.0848 -0.2703 -1.3575
 9526SOL    HW230020   6.189   3.331   4.979 -2.2422 -0.5588  0.1954
 9527SOL     OW30021   2.419   0.105   2.418 -0.3141 -0.4986 -0.0165
 9527SOL    HW130022   2.477   0.031   2.439 -2.4896 -1.8616  1.6442
 9527SOL    HW230023   2.472   0.162   2.363  1.5756 -3.1826 -1.2127
 9528SOL     OW30024   7.251   5.265   1.835 -0.4491 -0.1278  0.4162
 9528SOL    HW130025   7.178   5.308   1.790 -0.4186  0.9131  1.3214
 9528SOL    HW230026   7.297   5.218   1.766 -1.8116 -0.5827 -0.2197
 9529SOL     OW30027   0.900   5.683   7.522  0.2217 -0.0967  0.5804
 9529SOL    HW130028   0.846   5.759   7.502 -0.2004 -0.6083 -0.2918
 9529SOL    HW230029   0.965   5.715   7.584 -0.3533  0.8125  0.7285
 9530SOL     OW30030   6.042   6.430  10.021 -0.4150 -0.0853  0.0612
 9530SOL    HW130031   5.959   6.470  10.047 -0.6345 -0.0959 -0.5906
 9530SOL    HW230032   6.046   6.443   9.926 -0.7575 -2.0798 -0.2796
 9531SOL     OW30033   6.650   3.569   4.619  0.7980 -0.4979  0.1233
 9531SOL    HW130034   6.623   3.480   4.598 -1.7359  0.0183  0.8576
 9531SOL    HW230035   6.576   3.606   4.667  1.5205  2.2003 -0.6648
 9532SOL     OW30036   5.486   2.357   2.566  0.5381 -0.0196  0.0596
 9532SOL    HW130037   5.566   2.397   2.533  0.6804 -1.9222 -2.1922
 9532SOL    HW230038   5.507   2.264   2.572 -1.5063 -0.5968 -0.8140
 9533SOL     OW30039   7.614   2.239   0.444 -0.0085 -0.0686 -0.3278
 9533SOL    HW130040   7.601   2.289   0.525 -0.7670  0.3743 -0.7151
 9533SOL    HW230041   7.596   2.148   0.469  1.8543 -0.2522  0.4970
 9534SOL     OW30042   6.924   1.857   2.447  0.3979  0.5033 -0.6284
 9534SOL    HW130043   6.867   1.802   2.394 -0.3019 -0.7897  1.3582
 9534SOL    HW230044   6.911   1.945   2.411 -3.6515  0.4815  0.2530
 9535SOL     OW30045   1.282   2.830   2.223 -0.4690 -0.1149  0.5403
 9535SOL    HW130046   1.296   2.799   2.133 -1.1655  1.2743 -0.0614
 9535SOL    HW230047   1.323   2.916   2.225 -1.2518  0.2429  1.3008
 9536SOL     OW30048   1.233   6.164   5.904  0.0681 -0.3237  0.3134
 9536SOL    HW130049   1.294   6.198   5.969  0.2646 -1.2141  0.6179
 9536SOL    HW230050   1.281   6.170   5.821 -0.1441  0.7185  0.2541
 9537SOL     OW30051   7.064   4.966   0.133 -0.3890 -0.6835 -0.3335
 9537SOL    HW130052   6.981   5.005   0.161 -0.0604 -0.2689  0.0782
 9537SOL    HW230053   7.110   4.947   0.214  0.8219  1.0658 -0.5488
 9538SOL     OW30054   4.237   5.290   6.029 -0.3666 -0.0549  0.0646
 9538SOL    HW130055   4.291   5.268   6.104  1.6432  1.9515 -0.6752
 9538SOL    HW230056   4.289   5.265   5.953  0.4669  3.4510 -0.7112
 9539SOL     OW30057   4.561   0.567   4.520  0.2162 -0.2092 -0.3705
 9539SOL    HW130058   4.601   0.653   4.534  0.9028 -0.9134  2.6793
 9539SOL    HW230059   4.635   0.508   4.506 -0.1496 -0.5689 -0.8076
 9540SOL     OW30060   7.330   5.835   7.037 -0.3799  0.8225 -0.1575
 9540SOL    HW130061   7.305   5.916   6.994  1.4904  1.1314 -0.7347
 9540SOL    HW230062   7.425   5.830   7.028 -0.3694 -1.1312  0.3967
 9541SOL     OW30063   3.741   5.073  11.715 -0.1948 -0.5892  0.1297
 9541SOL    HW130064   3.712   5.102  11.801  0.1286 -2.4610  0.9063
 9541SOL    HW230065   3.826   5.117  11.702 -0.5722  0.2511  0.4340
 9542SOL     OW30066   5.069   5.436   8.051  0.0846  0.3572  0.1361
 9542SOL    HW130067   5.001   5.410   8.112  0.0895  0.8485  0.3518
 9542SOL    HW230068   5.113   5.510   8.093 -0.5970  1.4009 -0.9275
 9543SOL     OW30069   0.345   0.783   6.749 -0.2337  0.1558  0.4081
 9543SOL    HW130070   0.252   0.759   6.756 -0.4907 -0.0084 -2.3205
 9543SOL    HW230071   0.391   0.714   6.797 -1.4922 -0.0383  1.3949
 9544SOL     OW30072   0.933   7.813   0.358 -0.2620  0.5711  0.3223
 9544SOL    HW130073   0.890   7.789   0.275  0.9331  0.2423 -0.2226
 9544SOL    HW230074   1.025   7.789   0.345  0.1642  1.5880  1.3352
 9545SOL     OW30075   4.752   2.567   0.925 -0.2750  0.1365 -0.1411
 9545SOL    HW130076   4.744   2.658   0.895  0.5181  0.1433 -0.3830
 9545SOL    HW230077   4.700   2.563   1.005 -0.5977  0.7149 -0.3116
 9546SOL     OW30078   0.905   2.397   6.513 -0.1917  0.4750 -0.4212
 9546SOL    HW130079   0.881   2.353   6.594 -0.6324  0.5354 -0.5191
 9546SOL    HW230080   0.956   2.473   6.542  0.5033 -0.0500 -0.2512
 9547SOL     OW30081   4.595   7.220  10.079  0.2974  0.1981  0.3605
 9547SOL    HW130082   4.507   7.256  10.087 -0.4434 -1.3604 -0.3773
 9547SOL    HW230083   4.652   7.288  10.115 -1.2609  0.8983  1.6419
 9548SOL     OW30084   5.682   3.494  10.342  0.4971  0.3988  0.1376
 9548SOL    HW130085   5.689   3.403  10.313 -0.9375  0.9773 -2.2687
 9548SOL    HW230086   5.650   3.488  10.432  0.2826 -1.4662 -0.0335
 9549SOL     OW30087   5.477   4.404   3.246  0.6938  0.1862  0.0729
 9549SOL    HW130088   5.437   4.400   3.333 -1.5916 -1.5046 -0.9696
 9549SOL    HW230089   5.558   4.354   3.255 -0.0058 -0.8290  1.0230
 9550SOL     OW30090   7.752   7.532   5.633 -0.4799 -0.3846 -0.4846
 9550SOL    HW130091   7.698   7.476   5.688 -0.8339  0.3258 -0.0887
 9550SOL    HW230092   7.810   7.578   5.694 -0.4379 -0.0612 -0.7604
 9551SOL     OW30093   5.115   4.933   1.237 -0.0427 -0.2062 -0.6255
 9551SOL    HW130094   5.108   5.028   1.250 -0.2774  0.1339 -2.8031
 9551SOL    HW230095   5.047   4.896   1.293  0.9515  0.7787  1.3048
 9552SOL     OW30096   1.653   7.017  11.608  0.0088 -0.3593  0.6374
 9552SOL    HW130097   1.723   6.954  11.625 -0.5637 -1.6077 -1.2803
 9552SOL    HW230098   1.599   7.015  11.687  0.1813 -2.0595  0.7450
 9553SOL     OW30099   1.307   7.775   5.776 -0.9781 -0.1778 -0.0024
 9553SOL    HW130100   1.258   7.695   5.757 -3.8027  1.0463  1.5096
 9553SOL    HW230101   1.383   7.746   5.827 -1.7330 -1.9291  0.1771
 9554SOL     OW30102   4.783   5.735   1.745  0.4308  0.1226  0.5639
 9554SOL    HW130103   4.745   5.821   1.759 -0.1358  0.0431 -0.4217
 9554SOL    HW230104   4.771   5.689   1.828 -1.6284  0.1070  0.2967
 9555SOL     OW30105   2.293   5.878   6.716  1.0173 -0.4478  0.2538
 9555SOL    HW130106   2.254   5.791   6.729  1.0489 -0.4978  0.0131
 9555SOL    HW230107   2.234   5.938   6.763  0.9052 -0.5788  0.2801
 9556SOL     OW30108   5.486   2.458   4.805  0.1868  0.2302  0.3197
 9556SOL    HW130109   5.438   2.380   4.832  0.1617  0.6577  1.6152
 9556SOL    HW230110   5.572   2.425   4.778 -0.7313 -0.5229 -1.9043
 9557SOL     OW30111   6.342   4.728   0.494  0.2805  0.6172 -0.6728
 9557SOL    HW130112   6.252   4.720   0.462  0.3607 -1.4219 -0.5214
 9557SOL    HW230113   6.333   4.765   0.581 -0.4639  0.1474 -0.5333
 9558SOL     OW30114   2.258   4.608  10.704 -0.1850 -0.6933  0.5825
 9558SOL    HW130115   2.195   4.637  10.769 -0.4078 -0.5723  0.3127
 9558SOL    HW230116   2.291   4.525  10.739  0.1069 -0.3573  1.1193
 9559SOL     OW30117   0.318   5.732   6.159 -0.0884 -0.1882  0.1336
 9559SOL    HW130118   0.264   5.775   6.092 -0.1168 -0.2832  0.0958
 9559SOL    HW230119   0.286   5.767   6.242  1.3392  1.5877  0.0171
 9560SOL     OW30120   3.544   5.860   6.490 -0.4596  0.1956  0.1755
 9560SOL    HW130121   3.602   5.874   6.415 -0.3902 -2.3792 -0.3341
 9560SOL    HW230122   3.603   5.842   6.563 -0.5167  2.9470  1.0092
 9561SOL     OW30123   7.000   5.517  10.609  1.0525 -0.4666 -0.4959
 9561SOL    HW130124   6.915   5.559  10.596  0.7205 -1.2879 -0.9977
 9561SOL    HW230125   7.031   5.497  10.521  1.1998 -1.2898 -0.2641
 9562SOL     OW30126   2.000   2.891   9.946  0.2767 -0.4899 -0.0861
 9562SOL    HW130127   1.968   2.974   9.909  1.2546 -0.3816 -0.7216
 9562SOL    HW230128   1.929   2.862  10.004 -1.3304 -0.6412 -2.0041
 9563SOL     OW30129   0.086   4.800   2.024 -0.1981 -0.1974  0.3744
 9563SOL    HW130130   0.155   4.775   1.963 -1.5369  0.2160 -1.3937
 9563SOL    HW230131   0.071   4.722   2.077  1.0634 -0.5382  0.2585
 9564SOL     OW30132   7.871   0.488   3.765 -0.1308 -0.0890  0.2480
 9564SOL    HW130133   7.945   0.534   3.804  2.0830 -1.6504 -1.7618
 9564SOL    HW230134   7.839   0.431   3.835  2.1090 -1.0319  0.6182
 9565SOL     OW30135   4.321   2.415  10.887 -0.8564 -0.1870 -0.8312
 9565SOL    HW130136   4.317   2.324  10.857  1.0303 -0.4005 -0.5628
 9565SOL    HW230137   4.288   2.466  10.813 -2.3436 -1.0902 -0.8274
 9566SOL     OW30138   2.113   6.619   7.097  0.0638  0.5216  0.0594
 9566SOL    HW130139   2.060   6.681   7.047 -0.8532  0.1370  0.5428
 9566SOL    HW230140   2.068   6.611   7.181  1.2212  0.6510  0.7183
 9567SOL     OW30141   1.502   6.404   4.381 -0.5843  0.0584  0.3746
 9567SOL    HW130142   1.413   6.435   4.365  0.5084  1.7390 -3.7978
 9567SOL    HW230143   1.499   6.310   4.362 -1.2471  0.4152 -1.5172
 9568SOL     OW30144   3.911   7.856   2.734 -0.0411 -0.6105 -0.1752
 9568SOL    HW130145   3.966   7.875   2.658 -2.0203 -0.2637 -1.6018
 9568SOL    HW230146   3.888   7.763   2.724 -2.1968 -0.0067 -1.3786
 9569SOL     OW30147   6.465   4.390   4.677  0.5995 -0.1509  0.1206
 9569SOL    HW130148   6.404   4.445   4.629 -0.5686  1.6121  3.3183
 9569SOL    HW230149   6.546   4.392   4.626 -1.1135 -0.2436 -2.7939
 9570SOL     OW30150   0.331   3.460   8.948 -0.4818  0.4605 -0.4111
 9570SOL    HW130151   0.387   3.451   9.025 -2.8355  2.7204  1.7856
 9570SOL    HW230152   0.390   3.487   8.878  1.5302 -0.0653  0.9931
 9571SOL     OW30153   7.493   0.619   7.303 -0.1029  0.4584  0.4252
 9571SOL    HW130154   7.552   0.547   7.323  0.4033  1.0182  0.9597
 9571SOL    HW230155   7.461   0.649   7.388 -1.8778 -0.4191  0.1118
 9572SOL     OW30156   4.261   3.824  10.130 -0.2818  0.7114 -0.1424
 9572SOL    HW130157   4.250   3.918  10.113  1.0199  0.9066 -0.0519
 9572SOL    HW230158   4.292   3.819  10.220 -2.2874  0.0287  0.5410
 9573SOL     OW30159   6.715   7.464   5.859 -0.5415  0.1217 -0.0698
 9573SOL    HW130160   6.628   7.497   5.880 -1.0916 -0.4791 -1.2661
 9573SOL    HW230161   6.702   7.370   5.847 -0.2341  0.3311 -2.5361
 9574SOL     OW30162   2.262   0.220   2.887  0.4482  0.5466 -0.2486
 9574SOL    HW130163   2.312   0.166   2.948 -0.6822 -1.3160 -0.9006
 9574SOL    HW230164   2.306   0.208   2.803 -0.1899  0.1044 -0.5241
 9575SOL     OW30165   5.527   2.771   0.875 -0.1510  0.5118 -0.5645
 9575SOL    HW130166   5.581   2.808   0.945 -1.0892  0.9994 -0.0804
 9575SOL    HW230167   5.448   2.825   0.874 -1.1534 -0.8897 -0.4711
 9576SOL     OW30168   0.304   2.888   4.330 -0.6760  0.2619 -0.4017
 9576SOL    HW130169   0.370   2.853   4.271 -1.5943 -0.9294 -0.7617
 9576SOL    HW230170   0.255   2.811   4.359 -0.7032  0.9004  1.3556
 9577SOL     OW30171   7.743   5.298   0.181 -0.0430 -0.1628  0.2731
 9577SOL    HW130172   7.733   5.213   0.222 -1.0761  0.5487  1.5673
 9577SOL    HW230173   7.804   5.283   0.109  0.6783 -1.7484  1.1710
 9578SOL     OW30174   6.096   1.512   1.038  0.1116 -0.3652 -0.3442
 9578SOL    HW130175   6.190   1.497   1.030  0.6659  1.8801  1.0103
 9578SOL    HW230176   6.066   1.519   0.947  1.7548  1.3708 -0.8208
 9579SOL     OW30177   4.242   6.430   7.985 -0.1197 -0.4746  0.0966
 9579SOL    HW130178   4.220   6.400   8.073 -1.9725 -0.7434 -0.4265
 9579SOL    HW230179   4.162   6.472   7.953  0.5610 -0.2745 -1.4185
 9580SOL     OW30180   5.277   3.098   9.977 -0.0815  0.4256  0.5071
 9580SOL    HW130181   5.239   3.110   9.890  1.7899  1.8667 -0.1930
 9580SOL    HW230182   5.219   3.036  10.020 -2.5805  1.6711 -0.8154
 9581SOL     OW30183   1.710   7.579   8.488  0.2276 -0.0778 -0.6600
 9581SOL    HW130184   1.771   7.535   8.428  0.6973 -1.1401  0.5615
 9581SOL    HW230185   1.628   7.529   8.479  1.3991 -2.9864  2.4990
 9582SOL     OW30186   7.675   0.580   2.894  0.2302  0.3896  0.0214
 9582SOL    HW130187   7.584   0.561   2.917 -0.6496  3.4025 -0.5244
 9582SOL    HW230188   7.699   0.512   2.831 -1.8596 -0.1236 -0.2845
 9583SOL     OW30189   4.839   0.706   4.006  0.4534 -0.4465 -0.1664
 9583SOL    HW130190   4.788   0.629   4.031  0.8102 -0.7564 -0.3770
 9583SOL    HW230191   4.900   0.673   3.940  1.0689 -0.1234  0.2364
 9584SOL     OW30192   7.703   4.972   3.247  0.0191  0.0226  0.8425
 9584SOL    HW130193   7.648   4.928   3.312 -0.5125 -2.7684 -1.2670
 9584SOL    HW230194   7.663   4.949   3.163  3.3970 -0.6753 -0.7402
 9585SOL     OW30195   0.643   5.243   7.780  0.1451  0.1445 -0.0716
 9585SOL    HW130196   0.680   5.330   7.764  2.5571 -1.0791 -1.6682
 9585SOL    HW230197   0.695   5.207   7.851  0.7919 -0.8637 -1.0196
 9586SOL     OW30198   7.661   3.805  11.723 -0.0623  0.5681 -0.0409
 9586SOL    HW130199   7.625   3.737  11.780  0.8486  0.0360 -0.0769
 9586SOL    HW230200   7.752   3.779  11.709 -0.1947  0.8357 -1.5264
 9587SOL     OW30201   0.315   3.870  10.182  0.0912 -0.4166 -0.4510
 9587SOL    HW130202   0.242   3.819  10.217 -0.9099 -0.1039 -1.9767
 9587SOL    HW230203   0.274   3.931  10.121  1.6119 -0.0646 -1.1544
 9588SOL     OW30204   7.356   6.790  10.043 -0.4092 -0.3113 -0.0387
 9588SOL    HW130205   7.425   6.855  10.033 -1.1482  0.3409 -1.0778
 9588SOL    HW230206   7.277   6.841  10.061 -0.8589 -0.9526 -0.1484
 9589SOL     OW30207   3.405   2.583   6.546  0.1539 -0.2560 -0.5780
 9589SOL    HW130208   3.345   2.657   6.542  0.2935 -0.1831 -1.7419
 9589SOL    HW230209   3.490   2.621   6.566  0.2262 -0.0938 -1.1785
 9590SOL     OW30210   2.924   6.170   9.340 -0.3630 -0.3058 -0.0363
 9590SOL    HW130211   2.953   6.252   9.300 -2.8411  1.0604  0.8007
 9590SOL    HW230212   2.991   6.150   9.405  0.4784  0.8447 -0.5164
 9591SOL     OW30213   6.128   3.786   9.315  0.3258 -0.6789  0.1354
 9591SOL    HW130214   6.107   3.735   9.237  1.2989 -0.3142 -0.3876
 9591SOL    HW230215   6.046   3.790   9.365  0.0077 -1.9631 -0.2586
 9592SOL     OW30216   1.288   2.496   9.616 -0.0839 -0.1207  0.1378
 9592SOL    HW130217   1.228   2.507   9.541  0.8348  0.0184 -0.5982
 9592SOL    HW230218   1.286   2.580   9.661 -0.7852 -0.2635  0.3831
 9593SOL     OW30219   4.720   3.684   8.171  0.4177  0.3418  0.1573
 9593SOL    HW130220   4.661   3.725   8.107  1.2603  1.7816  0.2710
 9593SOL    HW230221   4.706   3.732   8.252 -0.4561 -1.3148  1.0526
 9594SOL     OW30222   1.187   0.993  12.206 -0.4694  0.7263  0.3724
 9594SOL    HW130223   1.188   0.927  12.275  1.6037  1.3005  0.9765
 9594SOL    HW230224   1.205   0.944  12.126 -0.9564  0.3055  0.5180
 9595SOL     OW30225   1.003   3.690  11.332 -0.2131 -0.2998 -0.3257
 9595SOL    HW130226   1.022   3.729  11.247 -0.4641  3.8948  1.3002
 9595SOL    HW230227   0.909   3.699  11.343 -0.0807 -0.0246  0.7063
 9596SOL     OW30228   0.588   4.211   6.655 -0.1931 -0.3035  0.3727
 9596SOL    HW130229   0.505   4.257   6.669 -1.1506 -1.9189  0.1847
 9596SOL    HW230230   0.563   4.120   6.642  1.4359 -0.5101 -1.7698
 9597SOL     OW30231   6.849   0.694   0.229  0.5214  0.4870 -0.1018
 9597SOL    HW130232   6.895   0.652   0.301 -1.1465  0.1849  0.8465
 9597SOL    HW230233   6.918   0.722   0.169  1.8914 -0.1629  1.1133
 9598SOL     OW30234   3.320   6.456  11.690  0.0782  0.0768  0.2377
 9598SOL    HW130235   3.317   6.461  11.594 -0.6331 -0.4704  0.2284
 9598SOL    HW230236   3.411   6.434  11.709 -0.1543 -1.6057 -0.4109
 9599SOL     OW30237   2.308   0.326   4.447 -0.0108  0.3383 -0.0418
 9599SOL    HW130238   2.229   0.329   4.392 -0.6794 -1.5318  0.7379
 9599SOL    HW230239   2.357   0.405   4.423 -0.9373  0.2955 -2.3233
 9600SOL     OW30240   3.850   6.443   2.081 -0.3739 -0.2506 -0.1314
 9600SOL    HW130241   3.838   6.379   2.011  1.5584 -0.5958 -0.1962
 9600SOL    HW230242   3.944   6.460   2.082 -0.3482 -0.2069  2.3500
 9601SOL     OW30243   0.564   2.809   7.873 -0.0706 -0.2087 -0.4711
 9601SOL    HW130244   0.579   2.881   7.812 -0.0181  0.0175 -0.1952
 9601SOL    HW230245   0.481   2.830   7.916  1.3809  1.2888  1.8074
 9602SOL     OW30246   4.720   7.454  10.236 -0.1260  0.0037  0.0401
 9602SOL    HW130247   4.697   7.488  10.150 -0.7318  0.7177  0.4713
 9602SOL    HW230248   4.805   7.411  10.223 -0.4899 -0.4186 -1.0290
 9603SOL     OW30249   7.572   3.628   8.408 -0.5204  0.1606  0.0780
 9603SOL    HW130250   7.628   3.705   8.424  0.8681 -1.0206  1.2365
 9603SOL    HW230251   7.491   3.647   8.456  0.4492  0.2442  1.7711
 9604SOL     OW30252   6.042   2.028   3.975 -0.1323  0.4928  0.0435
 9604SOL    HW130253   6.050   2.120   4.001 -0.6245  1.2659 -2.2846
 9604SOL    HW230254   5.998   1.986   4.049  0.3921  2.0455  1.2959
 9605SOL     OW30255   1.946   0.038  11.315 -0.1603  0.4329  0.1564
 9605SOL    HW130256   2.000   0.111  11.286 -1.2055  1.6919  1.2715
 9605SOL    HW230257   1.986   0.010  11.398 -1.2018  1.4131  1.0203
 9606SOL     OW30258   2.118   1.982   6.199  0.3723  0.4161  0.4052
 9606SOL    HW130259   2.112   1.976   6.104 -2.2156  0.8083  0.4630
 9606SOL    HW230260   2.055   1.918   6.231  1.2331  0.2678  1.8660
 9607SOL     OW30261   2.750   7.364   9.017  0.3852  0.0626 -0.1323
 9607SOL    HW130262   2.787   7.438   8.969  0.0019  1.0334  1.0332
 9607SOL    HW230263   2.774   7.288   8.964  1.7473  0.8989 -0.7944
 9608SOL     OW30264   2.274   0.293   1.728 -0.3704 -0.1217 -0.0005
 9608SOL    HW130265   2.306   0.276   1.640  0.5218  0.7462  0.1490
 9608SOL    HW230266   2.290   0.386   1.743  0.0822 -0.3902  1.3170
 9609SOL     OW30267   2.835   2.992   6.210  0.0321  0.2724  0.1439
 9609SOL    HW130268   2.888   2.914   6.222  1.0683  0.9656  0.1734
 9609SOL    HW230269   2.751   2.959   6.176  1.2201 -0.6688 -2.0725
 9610SOL     OW30270   4.772   6.299   4.331 -0.1212 -0.1644  0.3285
 9610SOL    HW130271   4.768   6.377   4.276  0.3565 -0.1601  0.2993
 9610SOL    HW230272   4.786   6.227   4.270  1.8813 -0.0076  0.5313
 9611SOL     OW30273   6.303   1.962   6.409 -0.0187  0.6212  0.3695
 9611SOL    HW130274   6.242   1.961   6.483 -1.5323 -1.7632 -0.7772
 9611SOL    HW230275   6.265   2.023   6.347 -0.9382 -0.3439 -0.0491
 9612SOL     OW30276   4.122   1.665   7.396  0.1303  0.1326  0.6319
 9612SOL    HW130277   4.130   1.687   7.303 -0.3593 -0.0853  0.5341
 9612SOL    HW230278   4.149   1.744   7.442 -2.2991  1.2697  0.2824
 9613SOL     OW30279   1.046   7.732  10.656  0.3559 -0.1164  0.8458
 9613SOL    HW130280   1.081   7.749  10.568 -0.1805  1.7675  0.9399
 9613SOL    HW230281   1.116   7.761  10.715  0.9250 -1.8601  1.0905
 9614SOL     OW30282   6.109   6.858   9.272  0.5154 -0.0874 -0.1698
 9614SOL    HW130283   6.142   6.899   9.192  0.1845 -1.7306 -1.2036
 9614SOL    HW230284   6.031   6.811   9.244  1.9793 -3.1315  0.3965
 9615SOL     OW30285   2.864   4.016   9.767 -0.2846 -0.1322  0.5716
 9615SOL    HW130286   2.785   4.069   9.758  0.2041  0.6967  0.9968
 9615SOL    HW230287   2.851   3.967   9.848 -1.1299 -1.3779 -0.2842
 9616SOL     OW30288   5.198   4.735   3.802 -0.2890 -0.3430  0.1288
 9616SOL    HW130289   5.178   4.828   3.790 -0.9346 -0.7234 -2.1922
 9616SOL    HW230290   5.281   4.735   3.850 -0.1833  1.4358  0.0205
 9617SOL     OW30291   0.511   1.411   2.433 -0.1181  0.4153  0.6352
 9617SOL    HW130292   0.497   1.446   2.345  1.5962  0.0215  0.1595
 9617SOL    HW230293   0.452   1.336   2.439 -1.7522  1.6316  0.6201
 9618SOL     OW30294   1.339   7.616  11.443  0.0443 -0.4001  0.6939
 9618SOL    HW130295   1.288   7.654  11.371 -1.1997 -0.4308  1.5282
 9618SOL    HW230296   1.321   7.522  11.437 -1.0455 -0.2880  1.7397
 9619SOL     OW30297   3.184   2.022   8.639  0.1139  0.1384  0.8119
 9619SOL    HW130298   3.148   2.090   8.582  1.7213 -0.2827 -0.8113
 9619SOL    HW230299   3.126   2.021   8.715 -1.1688  1.8604 -0.0712
 9620SOL     OW30300   7.653   3.545   1.035  0.0126 -0.0516  0.2080
 9620SOL    HW130301   7.721   3.546   1.103  2.3122  0.8524 -1.9403
 9620SOL    HW230302   7.639   3.638   1.014  0.2637 -0.3439 -1.3716
 9621SOL     OW30303   6.288   1.516  12.254  0.0586  0.0877 -0.1130
 9621SOL    HW130304   6.277   1.536  12.347 -1.2293 -1.4097  0.0984
 9621SOL    HW230305   6.275   1.600  12.210 -1.6053  0.4376  0.9413
 9622SOL     OW30306   0.990   5.142   6.701 -0.0601 -0.2909 -0.0232
 9622SOL    HW130307   0.938   5.064   6.683 -0.8437 -0.1238  1.3360
 9622SOL    HW230308   1.044   5.154   6.623 -0.0209 -2.0951 -0.3185
 9623SOL     OW30309   4.471   1.674   2.949 -0.0036 -0.5198  0.0457
 9623SOL    HW130310   4.378   1.690   2.936 -0.2413 -1.1640  0.8879
 9623SOL    HW230311   4.498   1.739   3.014  0.9803  2.0778 -2.7292
 9624SOL     OW30312   3.151   4.569  11.027 -0.3268  0.6027 -0.0344
 9624SOL    HW130313   3.092   4.604  11.094 -1.3006  1.5699 -1.3325
 9624SOL    HW230314   3.230   4.624  11.034 -0.2264  0.3786  0.6291
 9625SOL     OW30315   6.807   1.610   9.264  0.1314  0.1401 -0.5675
 9625SOL    HW130316   6.843   1.521   9.261 -0.1577 -0.0219  0.2829
 9625SOL    HW230317   6.797   1.636   9.173  1.3202 -0.2477 -0.8243
 9626SOL     OW30318   4.446   1.926   6.185 -0.1797 -0.7757  0.2328
 9626SOL    HW130319   4.406   1.985   6.121 -0.9810 -0.0213  1.3834
 9626SOL    HW230320   4.534   1.910   6.151  0.8817  2.7916  0.8806
 9627SOL     OW30321   3.263   5.769   2.355  0.4291  0.4310 -0.1170
 9627SOL    HW130322   3.188   5.709   2.362 -0.2441  1.1980 -0.5590
 9627SOL    HW230323   3.225   5.850   2.321  1.5001  0.7731 -0.5243
 9628SOL     OW30324   5.172   3.806   9.934 -0.4000 -0.0300  0.1376
 9628SOL    HW130325   5.170   3.901   9.949 -1.4908 -0.0723  0.3919
 9628SOL    HW230326   5.145   3.769  10.018 -0.1548 -0.5580 -0.0172
 9629SOL     OW30327   0.266   1.989  11.755 -0.1036 -0.3994  0.1232
 9629SOL    HW130328   0.240   2.048  11.684  0.8321 -1.2564 -0.9871
 9629SOL    HW230329   0.208   1.914  11.746 -0.7942  0.0010  1.0620
 9630SOL     OW30330   6.728   3.023   5.170  0.2251 -0.3953 -0.0680
 9630SOL    HW130331   6.700   2.953   5.111  0.4541  0.6340 -1.4491
 9630SOL    HW230332   6.819   3.041   5.145  0.8478 -0.9057  1.6115
 9631SOL     OW30333   6.692   2.731   6.226  0.7972  0.0650  0.0758
 9631SOL    HW130334   6.695   2.806   6.285  0.0625 -0.8180  1.2918
 9631SOL    HW230335   6.657   2.767   6.145  1.1587  1.1762  0.3832
 9632SOL     OW30336   1.547   3.066   6.869 -0.3917  0.5275 -0.1368
 9632SOL    HW130337   1.540   3.003   6.797 -0.7442  1.4942 -0.9677
 9632SOL    HW230338   1.477   3.128   6.853 -0.5696  0.6706  1.1435
 9633SOL     OW30339   6.093   5.992   7.474 -0.0217  0.3104  0.0239
 9633SOL    HW130340   6.084   6.086   7.457 -1.7692  0.4233  1.3111
 9633SOL    HW230341   6.032   5.950   7.414  0.0395  0.0692  0.1292
 9634SOL     OW30342   5.955   1.656   4.735  0.1845  0.5758 -0.0957
 9634SOL    HW130343   5.928   1.740   4.774 -1.9218 -0.2066  0.2908
 9634SOL    HW230344   5.886   1.637   4.671  1.0312 -0.5229 -0.7059
 9635SOL     OW30345   7.767   2.581   6.464  0.3056 -0.3902  0.2175
 9635SOL    HW130346   7.719   2.660   6.489  0.8571  0.0736 -0.1591
 9635SOL    HW230347   7.710   2.537   6.401  0.8934  0.8001 -1.1908
 9636SOL     OW30348   3.216   2.189   2.375  0.0437 -0.4264  0.1036
 9636SOL    HW130349   3.186   2.183   2.465 -2.2852  1.1680 -0.4904
 9636SOL    HW230350   3.266   2.271   2.372  0.2977 -0.5831 -0.0356
 9637SOL     OW30351   5.408   2.876   9.106  0.0378  0.4380 -0.7519
 9637SOL    HW130352   5.374   2.953   9.060  0.3526  1.7944  1.1964
 9637SOL    HW230353   5.380   2.887   9.196  0.9061 -1.2699 -0.2261
 9638SOL     OW30354   2.032   1.290  10.538  0.4334 -0.2482 -0.2333
 9638SOL    HW130355   2.127   1.295  10.524  0.7758 -3.2785  0.4246
 9638SOL    HW230356   2.000   1.235  10.467 -0.6292 -0.4253  0.3590
 9639SOL     OW30357   4.999   1.795  12.150  0.4650 -0.2265 -0.2626
 9639SOL    HW130358   4.978   1.884  12.176  4.1139  0.9353 -0.7532
 9639SOL    HW230359   5.026   1.752  12.231  1.6829  0.1237 -0.4645
 9640SOL     OW30360   1.384   4.781  10.158 -0.2708  0.0998  0.3119
 9640SOL    HW130361   1.313   4.840  10.185 -0.6867  0.4834 -1.5049
 9640SOL    HW230362   1.351   4.738  10.079  1.7174  0.7173 -0.9257
 9641SOL     OW30363   2.728   6.360   5.485  0.2041  0.1782  0.0173
 9641SOL    HW130364   2.712   6.409   5.566  1.0319  2.5247 -1.1566
 9641SOL    HW230365   2.674   6.282   5.494  0.6469  0.0951  3.0343
 9642SOL     OW30366   3.978   0.321   4.086 -0.1550 -0.2838  1.1129
 9642SOL    HW130367   4.060   0.316   4.135  0.9205 -2.0499 -0.7802
 9642SOL    HW230368   3.976   0.410   4.052  0.3080  0.1722  2.2160
 9643SOL     OW30369   0.338   5.520   3.635 -0.0124 -0.0787  0.0259
 9643SOL    HW130370   0.309   5.451   3.576  1.0810  1.6741 -2.7407
 9643SOL    HW230371   0.430   5.499   3.653  0.4091  0.7353 -1.0576
 9644SOL     OW30372   1.652   6.902   5.158  0.6038 -0.3519 -0.4924
 9644SOL    HW130373   1.589   6.834   5.133 -0.5105  0.5107 -0.1096
 9644SOL    HW230374   1.737   6.860   5.147  0.0294 -1.2215 -2.0501
 9645SOL     OW30375   4.115   5.266  10.979 -0.3629 -0.0246 -0.4694
 9645SOL    HW130376   4.112   5.305  11.066  1.6272 -1.5971  0.3560
 9645SOL    HW230377   4.169   5.326  10.927  0.2834 -0.2029 -0.0063
 9646SOL     OW30378   6.278   0.049   5.305  0.2783 -0.1429 -0.6849
 9646SOL    HW130379   6.200   0.026   5.253  0.3509  1.1601 -1.4120
 9646SOL    HW230380   6.324   0.114   5.252  1.3818 -0.1996  0.1656
 9647SOL     OW30381   4.273   3.343   0.783  0.6178 -0.0189  0.4137
 9647SOL    HW130382   4.255   3.266   0.728  0.0283  0.4322 -0.0394
 9647SOL    HW230383   4.345   3.315   0.840  1.0039 -0.6208 -0.3402
 9648SOL     OW30384   2.394   4.035   1.098 -0.0931 -0.0448  0.0411
 9648SOL    HW130385   2.366   3.992   1.017 -1.2179 -0.7150  0.7548
 9648SOL    HW230386   2.465   3.980   1.130 -0.1157 -0.1799 -0.1391
 9649SOL     OW30387   6.072   4.954   3.519  0.8067 -0.2777 -0.0577
 9649SOL    HW130388   6.035   4.931   3.433 -1.7200 -1.4184  1.2155
 9649SOL    HW230389   6.089   5.048   3.513  0.9172 -0.3837 -1.8897
 9650SOL     OW30390   3.501   5.528   3.269  0.3375  0.0747  0.4181
 9650SOL    HW130391   3.515   5.585   3.194 -0.7690  1.3413  1.1304
 9650SOL    HW230392   3.489   5.587   3.343  0.4954 -1.1193  1.4453
 9651SOL     OW30393   2.086   4.068   8.620 -0.1398 -0.2569 -0.6460
 9651SOL    HW130394   2.060   4.071   8.528  0.4686  0.3500 -0.8024
 9651SOL    HW230395   2.008   4.098   8.668 -0.0483  0.6549 -1.0481
 9652SOL     OW30396   0.505   7.016  11.864 -0.3599 -0.7708 -0.6202
 9652SOL    HW130397   0.585   7.047  11.822 -0.6264  0.8903 -0.0002
 9652SOL    HW230398   0.435   7.063  11.819 -0.7493 -0.0722  0.6485
 9653SOL     OW30399   4.894   6.872   3.130 -0.3287  0.2734  0.3273
 9653SOL    HW130400   4.949   6.841   3.058 -0.1366  1.6673 -0.1501
 9653SOL    HW230401   4.952   6.875   3.206 -0.1133  0.4255  0.1521
 9654SOL     OW30402   2.639   4.128   1.392  0.1716  0.1954 -0.3811
 9654SOL    HW130403   2.728   4.137   1.425  0.2889  0.9504 -0.8804
 9654SOL    HW230404   2.600   4.214   1.405 -1.2167 -0.6735  1.8604
 9655SOL     OW30405   0.908   6.958   6.507 -0.3443  0.3955  0.2494
 9655SOL    HW130406   0.882   7.034   6.560  0.7448  1.1632 -0.2737
 9655SOL    HW230407   0.939   6.894   6.570  0.0631  0.9372  0.6056
 9656SOL     OW30408   7.768   1.557   7.056 -0.3995 -0.2012  0.2522
 9656SOL    HW130409   7.767   1.591   6.967  0.4244 -0.5138  0.1104
 9656SOL    HW230410   7.861   1.558   7.081 -0.3151 -2.3181  0.2287
 9657SOL     OW30411   4.514   1.851   0.928 -0.3497  0.5990  0.0865
 9657SOL    HW130412   4.476   1.926   0.975 -0.6763  0.7579 -0.4101
 9657SOL    HW230413   4.470   1.853   0.843 -0.7732 -0.5024  0.2707
 9658SOL     OW30414   4.302   4.720   8.660  0.5562 -0.8693  0.2765
 9658SOL    HW130415   4.334   4.704   8.749  1.0337 -0.8488  0.1085
 9658SOL    HW230416   4.263   4.808   8.664  3.0442  0.3294 -0.1954
 9659SOL     OW30417   6.028   0.695  11.998  0.1009  0.4318  0.1023
 9659SOL    HW130418   5.963   0.747  11.950 -0.6532 -1.4905 -1.1029
 9659SOL    HW230419   6.077   0.650  11.929  0.6020 -0.5649  1.0802
 9660SOL     OW30420   0.561   4.970   7.221  0.5738  0.3817  0.1688
 9660SOL    HW130421   0.541   5.016   7.140 -0.1076  0.8523  0.5973
 9660SOL    HW230422   0.539   5.032   7.290 -1.8491 -1.0709  0.8287
 9661SOL     OW30423   5.197   5.339   1.164  0.4179 -0.0287 -0.0349
 9661SOL    HW130424   5.193   5.334   1.259  1.3813 -0.6030 -0.0112
 9661SOL    HW230425   5.221   5.430   1.145 -0.1178  0.1720  0.2557
 9662SOL     OW30426   0.306   1.150   8.826  1.0705 -0.1016 -0.7533
 9662SOL    HW130427   0.276   1.204   8.753  0.9544  0.2801 -0.4266
 9662SOL    HW230428   0.379   1.099   8.790  1.2384  0.3363 -1.0385
 9663SOL     OW30429   4.222   3.735  11.606  0.0579  0.4980  0.0755
 9663SOL    HW130430   4.277   3.791  11.661  1.1371  2.8491 -3.0916
 9663SOL    HW230431   4.149   3.791  11.580 -1.1126 -0.9596  0.1228
 9664SOL     OW30432   6.885   1.048   0.153  0.5764  0.2399  0.6277
 9664SOL    HW130433   6.901   1.139   0.178  1.3745  0.4105 -0.4271
 9664SOL    HW230434   6.819   1.053   0.083 -0.0286 -0.0621  1.1686
 9665SOL     OW30435   4.446   4.463   2.812  0.3444  1.3543  0.4520
 9665SOL    HW130436   4.377   4.482   2.875 -0.1959  1.8973 -0.2892
 9665SOL    HW230437   4.406   4.479   2.727  0.3706 -1.4107 -0.1875
 9666SOL     OW30438   1.058   4.549   7.103  0.0224 -0.0932  0.1740
 9666SOL    HW130439   1.149   4.528   7.084 -0.0404  0.6003 -0.9843
 9666SOL    HW230440   1.060   4.596   7.186  0.5617 -1.2181  0.8213
 9667SOL     OW30441   2.768   5.927  10.250 -0.3374  0.3595  0.0292
 9667SOL    HW130442   2.721   5.863  10.196  1.6386 -0.3790 -0.8914
 9667SOL    HW230443   2.835   5.963  10.192  0.2024  1.4296  1.2713
 9668SOL     OW30444   4.317   1.382   8.897 -0.1801  0.0006 -0.2588
 9668SOL    HW130445   4.294   1.338   8.815 -2.1574  0.8373 -0.2177
 9668SOL    HW230446   4.281   1.326   8.966 -1.1742  0.7633 -0.1328
 9669SOL     OW30447   4.877   0.471   7.297 -0.1108 -0.3043  0.4144
 9669SOL    HW130448   4.869   0.462   7.392  0.7809  1.6722  0.7353
 9669SOL    HW230449   4.789   0.494   7.267 -0.0857  0.5560  0.9823
 9670SOL     OW30450   7.789   4.853   7.666 -0.6052  0.3369 -0.7967
 9670SOL    HW130451   7.851   4.908   7.714 -2.1601  1.9808 -0.5894
 9670SOL    HW230452   7.797   4.767   7.707 -1.1034  1.4136  1.7314
 9671SOL     OW30453   6.454   3.485   8.347  0.7235  0.0619 -0.1566
 9671SOL    HW130454   6.423   3.529   8.268  1.8301 -1.1221 -1.2912
 9671SOL    HW230455   6.444   3.551   8.416 -1.8962  0.5616 -0.8845
 9672SOL     OW30456   6.361   3.435   6.053 -0.3613  0.2017 -0.1751
 9672SOL    HW130457   6.412   3.503   6.098 -0.2339  1.1353 -1.6525
 9672SOL    HW230458   6.381   3.355   6.101  1.5669  0.7536  0.0383
 9673SOL     OW30459   4.418   6.321   0.897 -0.4228  0.4362 -0.1949
 9673SOL    HW130460   4.491   6.287   0.949 -1.3630 -0.5503  0.5131
 9673SOL    HW230461   4.378   6.243   0.858 -2.5185  0.6783  1.3033
 9674SOL     OW30462   7.242   0.877   9.451 -0.4205  0.0145  0.0792
 9674SOL    HW130463   7.155   0.839   9.436 -1.0100  1.6940 -1.1632
 9674SOL    HW230464   7.288   0.864   9.368  0.6809 -1.1249  0.8185
 9675SOL     OW30465   1.638   4.878  10.316  0.2940  0.5408  0.7261
 9675SOL    HW130466   1.707   4.822  10.281  0.8800  1.0493  1.0439
 9675SOL    HW230467   1.557   4.831  10.297  0.8053 -0.7635  1.5978
 9676SOL     OW30468   1.718   3.331   3.797 -0.3372 -0.0619  0.4250
 9676SOL    HW130469   1.779   3.259   3.785  1.0633  1.2774 -0.9802
 9676SOL    HW230470   1.727   3.384   3.718 -0.3101  2.3591  1.9212
 9677SOL     OW30471   6.916   4.283   3.377  0.2720 -0.6139 -0.3873
 9677SOL    HW130472   6.940   4.355   3.436 -1.6396 -0.0810 -0.1898
 9677SOL    HW230473   6.909   4.206   3.434  1.3725 -0.7646 -0.4404
 9678SOL     OW30474   4.997   2.253   8.805  0.0943 -0.5816 -0.3732
 9678SOL    HW130475   5.062   2.283   8.869 -0.2377 -0.4353 -0.1016
 9678SOL    HW230476   5.047   2.199   8.744  0.7114  0.4927 -0.8704
 9679SOL     OW30477   1.283   6.528   6.113  0.3003 -0.2359  0.0999
 9679SOL    HW130478   1.201   6.558   6.152  0.2937  1.1181 -0.8539
 9679SOL    HW230479   1.265   6.527   6.019  1.4325  0.3231 -0.1402
 9680SOL     OW30480   1.239   2.374   5.409  0.0017  0.2825  0.2715
 9680SOL    HW130481   1.228   2.465   5.380  0.6542  0.2157 -0.2175
 9680SOL    HW230482   1.255   2.325   5.328 -1.8414 -0.5358  0.3454
 9681SOL     OW30483   4.821   2.911   8.540  0.1171 -0.3412 -0.1851
 9681SOL    HW130484   4.899   2.947   8.583  0.5295  0.2770 -1.4212
 9681SOL    HW230485   4.753   2.976   8.558 -0.0361 -0.6944  0.5677
 9682SOL     OW30486   7.453   1.138   9.338 -0.4036  0.1189  0.6029
 9682SOL    HW130487   7.390   1.132   9.266 -0.1410  2.1374  0.1262
 9682SOL    HW230488   7.503   1.057   9.333 -2.5900 -1.3133  0.6810
 9683SOL     OW30489   2.964   0.789  11.525 -0.5653  0.3546  0.7334
 9683SOL    HW130490   3.046   0.835  11.505 -0.8531  0.8516  0.7004
 9683SOL    HW230491   2.992   0.712  11.574  0.1518 -0.7831 -1.3382
 9684SOL     OW30492   4.282   0.822  12.043  0.8725  0.3918  0.4238
 9684SOL    HW130493   4.331   0.827  11.961  1.0874  1.5139  0.6082
 9684SOL    HW230494   4.274   0.728  12.060  1.7842  0.1678 -0.3006
 9685SOL     OW30495   7.672   0.976  10.691 -0.8624 -0.5429 -0.0054
 9685SOL    HW130496   7.634   0.947  10.774 -1.6428 -0.6297 -0.3847
 9685SOL    HW230497   7.597   0.984  10.632 -0.4426  0.4616 -0.4304
 9686SOL     OW30498   1.741   7.603   6.950  0.2654 -0.1162 -0.3722
 9686SOL    HW130499   1.736   7.556   6.867  2.0393 -0.3181 -0.4048
 9686SOL    HW230500   1.774   7.539   7.013  3.5480  1.1574 -0.5951
 9687SOL     OW30501   5.186   4.630   1.201  0.1822 -0.3919  0.6903
 9687SOL    HW130502   5.267   4.579   1.206 -0.4466 -1.6291 -0.6791
 9687SOL    HW230503   5.202   4.706   1.256  1.5739 -1.5395  1.9684
 9688SOL     OW30504   6.239   4.634   5.438 -0.3178  0.3019 -0.1176
 9688SOL    HW130505   6.205   4.590   5.516 -2.1519  0.7292 -0.6161
 9688SOL    HW230506   6.323   4.591   5.421  1.0504  1.3572  3.0746
 9689SOL     OW30507   1.809   4.415  11.445 -0.3189 -0.1884 -0.7948
 9689SOL    HW130508   1.891   4.457  11.420 -0.6109  1.1126  0.3209
 9689SOL    HW230509   1.836   4.333  11.486  0.3799 -0.0681 -0.9976
 9690SOL     OW30510   7.303   1.544   6.482 -0.3289 -0.2065  0.3519
 9690SOL    HW130511   7.395   1.564   6.498 -0.6496  2.0707 -0.2943
 9690SOL    HW230512   7.302   1.498   6.398  0.2661 -1.0072  0.7708
 9691SOL     OW30513   1.873   6.037   9.892 -0.1429 -0.2455 -0.0243
 9691SOL    HW130514   1.875   6.127   9.861  1.6749 -0.3333 -0.2784
 9691SOL    HW230515   1.786   6.026   9.930  0.4824  2.5097  2.6444
 9692SOL     OW30516   6.214   0.313   7.566 -0.3983  0.1560 -0.1159
 9692SOL    HW130517   6.262   0.393   7.587  0.3173 -0.0266 -1.0083
 9692SOL    HW230518   6.165   0.334   7.487  1.1002 -0.7582 -1.3590
 9693SOL     OW30519   1.502   4.567  10.290  0.2814 -0.8773 -0.7139
 9693SOL    HW130520   1.563   4.530  10.228  0.5245 -1.2887 -0.2343
 9693SOL    HW230521   1.444   4.623  10.237 -0.3503 -2.2435 -1.5071
 9694SOL     OW30522   3.644   2.605   7.458 -0.1520 -0.2183  0.5291
 9694SOL    HW130523   3.691   2.688   7.467  1.5413 -0.6310 -2.8991
 9694SOL    HW230524   3.681   2.550   7.528  0.4721  1.1346  1.3195
 9695SOL     OW30525   3.029   0.660   1.897  0.8406  0.7222  0.0045
 9695SOL    HW130526   2.939   0.631   1.915  1.3361  0.1302  1.7025
 9695SOL    HW230527   3.084   0.591   1.934  2.0049  1.3004 -0.6132
 9696SOL     OW30528   1.916   7.458  11.060 -0.3089 -0.2655  0.0331
 9696SOL    HW130529   1.996   7.436  11.106  0.3446  0.3182 -0.7901
 9696SOL    HW230530   1.871   7.519  11.118 -0.0794 -0.4561  0.4170
 9697SOL     OW30531   3.929   2.300   7.858  0.3458 -0.4570 -0.0578
 9697SOL    HW130532   4.020   2.331   7.854 -0.2205  1.1375 -2.1291
 9697SOL    HW230533   3.937   2.207   7.880  2.5430 -0.5981 -1.1240
 9698SOL     OW30534   3.462   6.450   7.314  0.6805 -0.3363  0.0121
 9698SOL    HW130535   3.401   6.470   7.243 -1.0124 -0.7955  1.2439
 9698SOL    HW230536   3.411   6.466   7.394  2.0614 -1.1355  1.1045
 9699SOL     OW30537   6.344   0.434   3.978 -0.1839  0.0526 -0.6330
 9699SOL    HW130538   6.406   0.374   3.936  1.4751  1.4569 -0.2765
 9699SOL    HW230539   6.360   0.424   4.071 -0.8213  0.1023 -0.5148
 9700SOL     OW30540   4.374   3.973   1.249  0.2131  0.0331  0.3477
 9700SOL    HW130541   4.295   3.928   1.279 -0.6713  0.4720 -1.2571
 9700SOL    HW230542   4.419   3.997   1.330 -0.9024 -0.8798  1.2840
 9701SOL     OW30543   2.123   5.423   1.365 -0.2197 -0.1675  0.4448
 9701SOL    HW130544   2.038   5.409   1.323  0.4740 -1.1439 -0.6998
 9701SOL    HW230545   2.149   5.511   1.339 -0.3596 -0.3007 -0.1561
 9702SOL     OW30546   3.397   2.439   7.854  0.5792  0.0265 -0.2687
 9702SOL    HW130547   3.420   2.362   7.804  0.2751 -1.4973  1.7967
 9702SOL    HW230548   3.303   2.430   7.873  0.9060 -0.1093  1.5214
 9703SOL     OW30549   6.276   1.343   9.541  0.1175  0.1305  0.1661
 9703SOL    HW130550   6.199   1.353   9.597  0.8034  0.2217  1.1244
 9703SOL    HW230551   6.347   1.383   9.591  0.7058  0.4454 -0.8925
 9704SOL     OW30552   6.463   7.674   1.310  0.0778 -0.2300 -0.1500
 9704SOL    HW130553   6.493   7.604   1.252  1.9006  0.2846  0.1175
 9704SOL    HW230554   6.431   7.629   1.388  2.1264 -0.7796  0.4207
 9705SOL     OW30555   5.247   2.938  10.918  0.2457 -0.1448 -0.0598
 9705SOL    HW130556   5.251   2.858  10.867 -1.3775 -0.8407  0.8083
 9705SOL    HW230557   5.166   2.981  10.890  1.3493  1.5102 -0.8986
 9706SOL     OW30558   3.098   4.976   9.283 -0.3278 -0.0359 -0.4998
 9706SOL    HW130559   3.172   4.918   9.267  1.0243  1.9221 -1.6998
 9706SOL    HW230560   3.137   5.058   9.314 -2.2621 -0.1648  2.7928
 9707SOL     OW30561   2.809   0.490   6.806  0.1610 -0.2084 -0.0353
 9707SOL    HW130562   2.883   0.489   6.866  0.8492 -2.3319 -0.8316
 9707SOL    HW230563   2.835   0.552   6.738  0.2940  0.5871  0.7099
 9708SOL     OW30564   3.986   7.392   8.370 -0.2808  0.7235  0.1671
 9708SOL    HW130565   3.891   7.399   8.386 -0.1111  2.0676  0.7438
 9708SOL    HW230566   4.019   7.480   8.387  0.9336  0.5364 -1.0913
 9709SOL     OW30567   6.904   6.742  10.025  0.1849 -0.5692  0.2554
 9709SOL    HW130568   6.817   6.719  10.057  0.8594 -2.8776  0.6188
 9709SOL    HW230569   6.908   6.705   9.937  0.6200  0.0150  0.0193
 9710SOL     OW30570   4.941   0.899   2.050 -0.1960  0.2653  0.3573
 9710SOL    HW130571   4.946   0.861   2.138  0.3125 -1.3468 -0.3365
 9710SOL    HW230572   4.861   0.863   2.013  1.4827 -2.1803 -1.1691
 9711SOL     OW30573   4.949   1.383   5.924 -0.2313 -0.3411  0.1505
 9711SOL    HW130574   4.944   1.331   6.004 -0.1996  0.7737  0.9066
 9711SOL    HW230575   4.936   1.474   5.954 -2.0789 -0.0487 -1.3395
 9712SOL     OW30576   1.525   4.558   5.647  0.0788  0.2401 -0.0279
 9712SOL    HW130577   1.543   4.482   5.702 -2.6701 -0.4676  0.0436
 9712SOL    HW230578   1.542   4.527   5.558 -0.0876 -0.1488  0.0746
 9713SOL     OW30579   4.044   4.775   6.411 -0.1127  0.3976  0.2395
 9713SOL    HW130580   4.108   4.775   6.341  0.5743  0.4472  0.8553
 9713SOL    HW230581   4.095   4.761   6.491 -1.0882 -1.6944  0.5571
 9714SOL     OW30582   3.326   1.863   6.625 -0.1845 -0.9744  0.0935
 9714SOL    HW130583   3.280   1.855   6.709  0.6986  0.7645  0.8131
 9714SOL    HW230584   3.406   1.812   6.637  0.6306  0.4199  0.8948
 9715SOL     OW30585   3.266   2.782  10.754 -0.4695 -0.0374  0.0172
 9715SOL    HW130586   3.340   2.759  10.811  0.6561 -0.4446 -1.5263
 9715SOL    HW230587   3.194   2.727  10.785 -0.1426  0.3396  1.5378
 9716SOL     OW30588   1.662   5.427   3.756 -0.5549  0.3125  0.4199
 9716SOL    HW130589   1.642   5.505   3.808 -0.4160 -0.1405  1.1837
 9716SOL    HW230590   1.754   5.437   3.733 -0.7979  0.8501 -0.3431
 9717SOL     OW30591   2.391   5.257   3.315  0.9513 -0.0165 -0.1245
 9717SOL    HW130592   2.296   5.263   3.325  0.6241 -2.0093 -1.3433
 9717SOL    HW230593   2.421   5.213   3.395  0.9239  0.9368  0.4238
 9718SOL     OW30594   4.681   4.627   5.770  0.4754 -0.0830  0.6496
 9718SOL    HW130595   4.601   4.582   5.742  1.2534 -0.3040 -1.4058
 9718SOL    HW230596   4.664   4.719   5.751  0.9775 -0.2256 -0.6435
 9719SOL     OW30597   2.480   4.180   3.508 -0.1785  0.2401 -0.1063
 9719SOL    HW130598   2.436   4.250   3.556  0.2784 -0.0416  0.7413
 9719SOL    HW230599   2.463   4.200   3.416 -1.6706  0.3993  0.1851
 9720SOL     OW30600   0.353   3.878   3.699 -0.0162  0.2376 -0.2283
 9720SOL    HW130601   0.384   3.790   3.719 -1.1319 -0.1569 -0.1270
 9720SOL    HW230602   0.265   3.864   3.664  0.6366  1.1426 -2.4026
 9721SOL     OW30603   3.025   5.664   3.662 -0.3621  0.1487  0.3638
 9721SOL    HW130604   3.034   5.687   3.570 -1.2311 -1.1890 -0.0879
 9721SOL    HW230605   2.985   5.741   3.702  0.6157  0.9938 -0.2270
 9722SOL     OW30606   5.765   1.426  10.911 -0.3437  0.4676 -0.2343
 9722SOL    HW130607   5.851   1.438  10.952 -0.2432  0.3236 -0.4017
 9722SOL    HW230608   5.785   1.399  10.822 -0.5500  1.5925 -0.6423
 9723SOL     OW30609   6.267   1.451  10.001  0.3353 -0.1885  0.0123
 9723SOL    HW130610   6.349   1.442  10.050 -0.1364 -0.6113  0.7518
 9723SOL    HW230611   6.245   1.362   9.974  1.0088  0.1343 -1.7126
 9724SOL     OW30612   1.954   5.412   0.746  0.4372 -0.6189  0.2323
 9724SOL    HW130613   2.018   5.476   0.714  0.0453 -0.6041 -0.5440
 9724SOL    HW230614   2.007   5.339   0.778  0.8832  0.0212  0.9974
 9725SOL     OW30615   6.847   6.717   6.485 -0.1807  0.4660 -0.0075
 9725SOL    HW130616   6.872   6.791   6.430 -0.4924 -0.5859 -1.6230
 9725SOL    HW230617   6.790   6.756   6.552  2.9737  2.3656  1.8363
 9726SOL     OW30618   0.158   5.889   9.185 -0.6864 -0.1544  0.1621
 9726SOL    HW130619   0.128   5.833   9.113 -1.5117 -1.2548  1.3050
 9726SOL    HW230620   0.252   5.897   9.172 -0.4957 -2.0711  0.1006
 9727SOL     OW30621   4.557   3.921  12.102 -0.1321 -0.0343  0.0744
 9727SOL    HW130622   4.574   3.830  12.080  2.9383  0.1484  1.1751
 9727SOL    HW230623   4.550   3.921  12.198  0.6460  0.9597  0.1428
 9728SOL     OW30624   3.111   1.013   9.925  0.3877  0.5589 -0.0750
 9728SOL    HW130625   3.109   0.972  10.011  2.6654  0.6029  0.0589
 9728SOL    HW230626   3.061   1.094   9.935  1.0471  0.8081  1.3620
 9729SOL     OW30627   7.151   5.234   0.379  0.0675 -0.4214 -0.2728
 9729SOL    HW130628   7.181   5.317   0.342  1.0997 -0.8153 -0.3443
 9729SOL    HW230629   7.168   5.241   0.472 -0.6658 -0.2172 -0.1479
 9730SOL     OW30630   7.775   4.636   1.506 -0.0109  0.4676  0.0984
 9730SOL    HW130631   7.793   4.635   1.600  0.3007 -0.1239  0.0418
 9730SOL    HW230632   7.731   4.553   1.489  0.0966  0.4893 -0.3057
 9731SOL     OW30633   3.142   6.774   1.462 -0.0845 -0.6140 -0.6096
 9731SOL    HW130634   3.204   6.843   1.442  0.3373 -1.2232 -1.4728
 9731SOL    HW230635   3.082   6.773   1.387 -2.0210  0.8724  0.8031
 9732SOL     OW30636   7.095   4.642  11.098 -0.6846 -0.7607 -0.7004
 9732SOL    HW130637   7.039   4.600  11.164 -0.2889 -0.0218  0.1219
 9732SOL    HW230638   7.174   4.589  11.096 -0.9262 -1.1138 -0.9989
 9733SOL     OW30639   6.433   1.481   1.557 -0.4369 -0.5082 -0.2393
 9733SOL    HW130640   6.353   1.511   1.601 -1.0394 -0.9345 -1.0081
 9733SOL    HW230641   6.452   1.397   1.599 -0.3594 -0.3833 -0.0209
 9734SOL     OW30642   1.269   7.103   7.177  0.0587 -0.7256  0.1494
 9734SOL    HW130643   1.257   7.196   7.200 -2.7856 -0.8497 -0.4228
 9734SOL    HW230644   1.294   7.104   7.085  0.1143 -0.5152  0.1661
 9735SOL     OW30645   1.906   2.328   9.305 -0.6951 -0.1985  0.0646
 9735SOL    HW130646   1.981   2.270   9.293 -2.2783 -2.3977  0.0727
 9735SOL    HW230647   1.914   2.393   9.235  1.5694  0.1003  0.5303
 9736SOL     OW30648   7.344   2.028   9.280 -0.3516  0.0809 -0.0903
 9736SOL    HW130649   7.292   2.043   9.359  1.9894  1.2421  1.3565
 9736SOL    HW230650   7.401   2.105   9.274  1.1988 -1.1081 -1.5497
 9737SOL     OW30651   4.388   4.369   5.327 -0.1145 -0.3447 -0.1415
 9737SOL    HW130652   4.438   4.309   5.272 -0.7300 -1.0275  0.0205
 9737SOL    HW230653   4.311   4.318   5.354 -0.2952  0.2855  0.5756
 9738SOL     OW30654   6.156   6.063   3.750  0.1666  0.0317  0.4203
 9738SOL    HW130655   6.131   6.155   3.757 -0.2510  0.0000 -0.5250
 9738SOL    HW230656   6.074   6.017   3.735  0.4974 -0.3693 -0.2062
 9739SOL     OW30657   7.172   6.609  12.268  0.2079  0.6310  0.6158
 9739SOL    HW130658   7.152   6.569  12.353 -0.2704  1.3388  0.8401
 9739SOL    HW230659   7.087   6.622  12.227  0.3810  1.1088  0.4011
 9740SOL     OW30660   2.891   5.550   5.243  0.3702  0.0579 -0.6497
 9740SOL    HW130661   2.860   5.626   5.291 -1.0219 -1.2104  0.5561
 9740SOL    HW230662   2.811   5.503   5.218  1.2008 -1.5379 -0.4487
 9741SOL     OW30663   1.081   2.505   4.625 -0.1273  0.1131 -0.0519
 9741SOL    HW130664   1.068   2.559   4.547 -1.2483 -1.0373 -0.7022
 9741SOL    HW230665   1.087   2.568   4.697 -0.1588  1.1493 -0.9322
 9742SOL     OW30666   1.747   0.797   3.122  0.3714 -0.3798  0.3859
 9742SOL    HW130667   1.744   0.834   3.211 -0.4365  0.4053  0.0474
 9742SOL    HW230668   1.658   0.806   3.089  0.8246  0.0356 -0.7798
 9743SOL     OW30669   5.086   4.126   8.109 -0.1479  0.0835 -0.0776
 9743SOL    HW130670   5.050   4.168   8.187 -2.6265  0.1227 -1.1681
 9743SOL    HW230671   5.047   4.174   8.036  2.1426  0.0714 -1.4012
 9744SOL     OW30672   2.644   7.883   8.417 -0.6573 -0.2621 -0.1253
 9744SOL    HW130673   2.598   7.918   8.341  0.2604 -0.7711 -0.9434
 9744SOL    HW230674   2.689   7.805   8.384  1.0433  0.3832  0.5492
 9745SOL     OW30675   4.220   0.249   3.503  0.3828 -0.2854  0.0500
 9745SOL    HW130676   4.246   0.195   3.578  0.4921  0.4830  0.5889
 9745SOL    HW230677   4.301   0.261   3.453  0.8201  1.0174  1.0160
 9746SOL     OW30678   7.382   3.494   5.162  0.5938 -0.1582 -0.2357
 9746SOL    HW130679   7.305   3.438   5.169  1.0281 -0.6253  1.0508
 9746SOL    HW230680   7.364   3.550   5.086 -1.2537  0.1202  0.3556
 9747SOL     OW30681   2.768   3.079   2.410  0.0338 -0.7510  0.1049
 9747SOL    HW130682   2.818   3.151   2.372  0.0793 -0.1537  1.2500
 9747SOL    HW230683   2.812   3.000   2.379  0.2876 -0.2856 -0.7586
 9748SOL     OW30684   3.640   6.864   3.093 -0.4164  0.3965 -0.1712
 9748SOL    HW130685   3.735   6.862   3.106 -0.1829  0.6687 -1.6649
 9748SOL    HW230686   3.627   6.930   3.025 -1.5868 -0.3656 -0.7032
 9749SOL     OW30687   2.402   7.845   1.715 -0.5185 -0.5036  0.2007
 9749SOL    HW130688   2.457   7.904   1.663 -3.0302  1.3363 -0.5467
 9749SOL    HW230689   2.404   7.762   1.667 -0.1500  0.1903 -1.0144
 9750SOL     OW30690   2.832   2.235   9.474 -0.0916 -0.3329 -0.2204
 9750SOL    HW130691   2.753   2.216   9.424 -0.8329  1.5225  0.1312
 9750SOL    HW230692   2.804   2.235   9.565  0.3523  0.0994 -0.0732
 9751SOL     OW30693   0.576   0.687   9.709  0.0482  0.3635  0.2056
 9751SOL    HW130694   0.514   0.667   9.779 -0.0737 -0.2631 -0.0685
 9751SOL    HW230695   0.540   0.764   9.665  0.3844  1.0678  1.1293
 9752SOL     OW30696   0.424   7.245  11.135 -0.7969 -0.4778  0.2816
 9752SOL    HW130697   0.469   7.321  11.170  1.7753 -1.4445 -0.6672
 9752SOL    HW230698   0.390   7.273  11.050  0.0552 -0.3290 -0.0192
 9753SOL     OW30699   1.834   4.015  11.332  0.5349 -0.5309 -0.3287
 9753SOL    HW130700   1.877   3.929  11.337 -0.6288 -1.0814  0.7008
 9753SOL    HW230701   1.870   4.063  11.406  2.5820  0.5926 -1.9481
 9754SOL     OW30702   4.972   4.645   2.123  0.1291  0.1054 -0.5811
 9754SOL    HW130703   4.917   4.627   2.047  1.4443 -1.7408 -1.1634
 9754SOL    HW230704   5.035   4.711   2.093  0.4443 -0.3850 -1.0159
 9755SOL     OW30705   3.127   1.202   6.935  0.1839  0.0861 -0.0348
 9755SOL    HW130706   3.199   1.207   6.998 -0.8759  0.1878  1.2308
 9755SOL    HW230707   3.083   1.287   6.944 -0.8603 -0.4653  0.1944
 9756SOL     OW30708   3.374   7.156  11.087 -0.1388 -0.2023 -0.1508
 9756SOL    HW130709   3.413   7.151  11.000  0.2059 -0.1737  0.0015
 9756SOL    HW230710   3.292   7.203  11.074 -0.3034 -0.5987 -0.5352
 9757SOL     OW30711   3.151   6.788  11.152 -0.7972  0.2313 -0.3362
 9757SOL    HW130712   3.069   6.798  11.103 -0.4788  2.2113 -0.5689
 9757SOL    HW230713   3.129   6.728  11.223 -2.4212  0.5662 -0.5138
 9758SOL     OW30714   6.673   0.604  10.782  0.1568  0.1040 -0.3117
 9758SOL    HW130715   6.648   0.674  10.723 -0.1346  0.0577 -0.2461
 9758SOL    HW230716   6.596   0.591  10.838  0.8174  0.9238  0.8417
 9759SOL     OW30717   6.041   3.822   4.271 -0.1423  0.1032 -0.2175
 9759SOL    HW130718   6.056   3.885   4.341  0.2513 -1.0522  0.7892
 9759SOL    HW230719   6.127   3.812   4.229 -0.1251 -0.0155 -0.1543
 9760SOL     OW30720   7.322   0.121  11.819 -0.0228  0.3502 -0.1415
 9760SOL    HW130721   7.357   0.143  11.905 -1.4111  0.8890  0.3094
 9760SOL    HW230722   7.304   0.027  11.823  0.1597  0.3240  0.0551
 9761SOL     OW30723   1.394   0.176   2.580  0.2083 -0.0602  0.7015
 9761SOL    HW130724   1.444   0.095   2.576 -0.8917 -0.7159 -0.2180
 9761SOL    HW230725   1.323   0.164   2.517  0.5089  1.9552 -0.1034
 9762SOL     OW30726   1.921   0.344   1.775  0.1904  0.0138  0.3366
 9762SOL    HW130727   1.975   0.379   1.847  0.8068 -0.2299  0.0031
 9762SOL    HW230728   1.930   0.408   1.705  2.0423 -1.1833 -0.5986
 9763SOL     OW30729   4.420   4.240   2.002 -0.0199  0.0602 -0.5785
 9763SOL    HW130730   4.370   4.278   2.073  0.2017  0.5722 -0.6876
 9763SOL    HW230731   4.457   4.315   1.956  0.8305 -0.2995 -0.5127
 9764SOL     OW30732   2.148   3.413  11.397 -0.0686  0.0465 -0.1567
 9764SOL    HW130733   2.205   3.343  11.428  1.0411  0.1647 -1.8255
 9764SOL    HW230734   2.095   3.372  11.329  0.0658  0.6626 -0.6330
 9765SOL     OW30735   6.827   6.755   3.769 -0.2020  0.0502 -0.0455
 9765SOL    HW130736   6.750   6.808   3.752 -0.4852 -0.2537  0.2782
 9765SOL    HW230737   6.889   6.779   3.700 -0.4406  0.5744 -0.0760
 9766SOL     OW30738   2.231   5.736   0.286 -0.0150 -0.1783  0.3505
 9766SOL    HW130739   2.137   5.749   0.290  0.0057  0.5715 -1.0170
 9766SOL    HW230740   2.269   5.814   0.327  0.0143  0.9204 -1.6491
 9767SOL     OW30741   6.230   4.148   5.557  0.1430 -0.6949  0.0248
 9767SOL    HW130742   6.298   4.084   5.535  0.2717 -1.3341  2.0570
 9767SOL    HW230743   6.269   4.233   5.537  1.3670 -1.0836  0.6622
 9768SOL     OW30744   1.248   0.968   4.287  0.5885  0.1321  0.1366
 9768SOL    HW130745   1.324   0.923   4.325 -0.2028 -0.7186  0.7533
 9768SOL    HW230746   1.250   0.943   4.194 -0.2593 -1.8344  0.6080
 9769SOL     OW30747   1.675   2.588  10.877 -0.4365  0.0357  0.5416
 9769SOL    HW130748   1.731   2.511  10.878 -0.3641  0.0813  0.2775
 9769SOL    HW230749   1.613   2.572  10.806  0.4973  0.8525 -0.4981
 9770SOL     OW30750   2.180   3.757  12.280  0.1232 -0.8870 -0.2217
 9770SOL    HW130751   2.167   3.741  12.186 -2.1237  0.5939 -0.2223
 9770SOL    HW230752   2.228   3.840  12.284  2.1539 -1.9865 -0.0163
 9771SOL     OW30753   6.665   7.670   4.026  0.6212 -0.1426 -0.4161
 9771SOL    HW130754   6.625   7.689   4.111 -0.6921 -0.0527 -1.0211
 9771SOL    HW230755   6.646   7.578   4.010 -0.6270  0.2410 -1.3328
 9772SOL     OW30756   0.710   5.781   2.595 -0.0608 -0.0067  0.2485
 9772SOL    HW130757   0.723   5.872   2.566 -1.7767 -0.1958 -1.2973
 9772SOL    HW230758   0.664   5.739   2.523 -0.1336 -1.8854  1.3197
 9773SOL     OW30759   7.812   2.025  12.095 -0.0772  0.3376  0.2389
 9773SOL    HW130760   7.869   2.089  12.052  0.6773 -0.1417  0.5084
 9773SOL    HW230761   7.848   2.017  12.183  1.6568 -2.5791 -0.5996
 9774SOL     OW30762   4.168   4.274  11.181  0.5254 -0.5691 -0.1280
 9774SOL    HW130763   4.143   4.365  11.194  0.7071 -0.3837 -1.0188
 9774SOL    HW230764   4.260   4.269  11.209  0.0572 -0.8609  1.4747
 9775SOL     OW30765   0.274   4.595   3.623  0.1360  0.5418  0.6087
 9775SOL    HW130766   0.209   4.573   3.556 -1.0375  0.3816  1.7751
 9775SOL    HW230767   0.346   4.534   3.607 -0.7982 -0.5450  0.4682
 9776SOL     OW30768   6.652   0.685   8.357 -0.6542 -0.4700  0.1907
 9776SOL    HW130769   6.730   0.714   8.309 -0.9884 -1.3328 -0.9231
 9776SOL    HW230770   6.667   0.715   8.446  0.8790 -0.4557 -0.0355
 9777SOL     OW30771   4.051   5.104  11.342 -0.2073  0.1082  0.6419
 9777SOL    HW130772   4.056   5.046  11.265 -1.1671 -1.4712  1.7033
 9777SOL    HW230773   4.079   5.189  11.309  1.4652 -0.9751 -0.9599
 9778SOL     OW30774   5.523   4.990   8.621  0.0906  0.2051  0.1660
 9778SOL    HW130775   5.615   4.970   8.638 -0.8112 -2.7842  2.3524
 9778SOL    HW230776   5.500   5.053   8.688  0.2719  0.0595  0.3681
 9779SOL     OW30777   1.891   2.516   5.441  0.9186 -0.5450 -0.2015
 9779SOL    HW130778   1.968   2.461   5.454  1.2272 -0.2940 -0.9385
 9779SOL    HW230779   1.852   2.485   5.359  1.2620  0.5185 -0.7789
 9780SOL     OW30780   3.791   1.912   6.896 -0.5809 -0.3293 -0.1440
 9780SOL    HW130781   3.851   1.953   6.833 -2.0076  0.6669 -0.8992
 9780SOL    HW230782   3.844   1.903   6.976  0.9632 -0.6887 -1.1535
 9781SOL     OW30783   7.822   4.865   8.880 -0.2909  0.2721  0.4412
 9781SOL    HW130784   7.864   4.817   8.952 -1.1960 -0.6412  0.3871
 9781SOL    HW230785   7.890   4.870   8.812 -0.2726 -1.3350  0.2861
 9782SOL     OW30786   5.414   5.939   2.472  0.0044  0.2840 -0.0082
 9782SOL    HW130787   5.395   5.848   2.447 -0.8438  0.4254  0.0983
 9782SOL    HW230788   5.507   5.938   2.496 -0.4496 -0.9920  1.8826
 9783SOL     OW30789   0.857   0.279   2.554 -0.3388 -0.2837  0.6069
 9783SOL    HW130790   0.762   0.269   2.546 -0.4496  1.3329 -0.3855
 9783SOL    HW230791   0.886   0.312   2.469  1.3538 -2.1730  0.3649
 9784SOL     OW30792   7.488   1.324   8.379 -0.0745 -0.8016  0.5096
 9784SOL    HW130793   7.418   1.332   8.314  0.8299 -0.1264 -0.4197
 9784SOL    HW230794   7.550   1.262   8.339  0.6423 -0.1389  0.5654
 9785SOL     OW30795   0.198   4.848   5.188  0.4029 -0.2201  0.2708
 9785SOL    HW130796   0.155   4.775   5.233 -1.7946  1.3967  0.9326
 9785SOL    HW230797   0.169   4.840   5.097  1.8927 -1.3406 -0.1544
 9786SOL     OW30798   2.771   5.160  10.835 -0.6299 -0.2559 -0.1795
 9786SOL    HW130799   2.801   5.251  10.837  0.5439 -0.6459  1.0548
 9786SOL    HW230800   2.822   5.119  10.765 -0.1217 -0.2963  0.2096
 9787SOL     OW30801   4.840   7.792   5.324  0.5052 -0.5458 -0.5632
 9787SOL    HW130802   4.779   7.719   5.316 -0.4163  0.2022 -0.5352
 9787SOL    HW230803   4.882   7.778   5.409  0.5404 -1.1862 -0.6804
 9788SOL     OW30804   4.057   6.950   5.130 -0.1215 -0.2451  0.9240
 9788SOL    HW130805   3.991   6.890   5.095  0.1296  0.0580 -0.0992
 9788SOL    HW230806   4.102   6.983   5.053 -0.9074  2.0511  1.3916
 9789SOL     OW30807   1.421   1.797   1.324 -0.0664  0.5794 -0.1080
 9789SOL    HW130808   1.338   1.837   1.300 -1.2555 -0.3883  2.1349
 9789SOL    HW230809   1.467   1.785   1.241 -1.8804  1.6894 -1.3324
 9790SOL     OW30810   1.310   2.846   2.950  0.2452 -0.3865 -0.1151
 9790SOL    HW130811   1.235   2.905   2.953 -0.2192 -0.9974  0.7326
 9790SOL    HW230812   1.365   2.873   3.024  2.0174  1.4934 -1.9834
 9791SOL     OW30813   1.147   0.525   1.914 -0.0540 -0.2383  0.1997
 9791SOL    HW130814   1.115   0.521   2.004  1.0636  0.8657  0.6775
 9791SOL    HW230815   1.188   0.440   1.899 -0.2789 -0.4397  0.7169
 9792SOL     OW30816   0.299   2.209   7.533 -0.1176 -1.0159  0.4943
 9792SOL    HW130817   0.369   2.160   7.576 -0.6627 -1.5331  0.8239
 9792SOL    HW230818   0.238   2.230   7.604 -0.0243 -0.0809  0.3067
 9793SOL     OW30819   3.739   4.871  12.022  0.2687  0.0176 -0.0076
 9793SOL    HW130820   3.744   4.799  12.085 -1.5186 -0.8466 -0.7994
 9793SOL    HW230821   3.766   4.948  12.072  1.3255 -1.0335  1.1135
 9794SOL     OW30822   5.937   6.518   0.766 -0.2294 -0.5060  0.5372
 9794SOL    HW130823   5.964   6.603   0.800 -0.4264  0.5005 -1.6932
 9794SOL    HW230824   6.005   6.495   0.703 -0.5548 -1.6762  0.5879
 9795SOL     OW30825   5.017   7.515   0.028  0.5790  0.2461  0.2976
 9795SOL    HW130826   5.023   7.607   0.053 -1.1023  0.1942  1.0309
 9795SOL    HW230827   4.986   7.518  -0.063 -0.5908  0.4318  0.6824
 9796SOL     OW30828   0.729   6.766   2.213 -0.1760  0.3146  0.3327
 9796SOL    HW130829   0.724   6.854   2.174  1.3940 -0.0140 -0.7010
 9796SOL    HW230830   0.762   6.781   2.302  0.9982  0.7452 -0.1468
 9797SOL     OW30831   4.617   2.799   0.374 -0.2207 -0.0674 -0.3959
 9797SOL    HW130832   4.708   2.768   0.364 -0.2768 -1.1452  1.8624
 9797SOL    HW230833   4.565   2.736   0.324  0.0335 -1.3729  0.9179
 9798SOL     OW30834   0.803   2.100   9.394  0.7317 -0.1333 -0.6673
 9798SOL    HW130835   0.730   2.055   9.437  1.0195  0.4498  0.4842
 9798SOL    HW230836   0.871   2.105   9.462  0.4593  2.6269 -0.4925
 9799SOL     OW30837   0.509   0.800   5.624 -0.2716 -0.1140  0.8147
 9799SOL    HW130838   0.596   0.783   5.588 -0.4671  0.4348  0.0469
 9799SOL    HW230839   0.525   0.838   5.710  0.3110  1.7487 -0.0810
 9800SOL     OW30840   5.546   6.440   9.145 -0.2807 -0.3120  0.1351
 9800SOL    HW130841   5.583   6.522   9.113 -1.1013  0.1689  0.3819
 9800SOL    HW230842   5.491   6.408   9.073  0.6657 -1.0708 -0.2672
 9801SOL     OW30843   0.469   3.777   8.651  0.3262 -0.2952 -0.0853
 9801SOL    HW130844   0.467   3.787   8.746  0.7823  0.1665 -0.1207
 9801SOL    HW230845   0.456   3.866   8.618  1.1500 -0.3027 -0.4457
 9802SOL     OW30846   4.777   4.618   4.506 -0.1979  0.1959  0.3152
 9802SOL    HW130847   4.710   4.666   4.556 -1.2455 -0.2911 -0.5698
 9802SOL    HW230848   4.736   4.603   4.421  0.5234 -1.2877  0.1991
 9803SOL     OW30849   0.802   5.451   7.686  0.4664  0.4573  0.2354
 9803SOL    HW130850   0.814   5.535   7.641  1.1664 -0.3322 -1.1212
 9803SOL    HW230851   0.891   5.419   7.701  0.2365  0.4815  1.8275
 9804SOL     OW30852   0.915   6.292  10.242 -0.5978 -0.5219 -0.3323
 9804SOL    HW130853   0.839   6.316  10.294  0.0572  0.3230  0.2591
 9804SOL    HW230854   0.949   6.213  10.285 -1.0056 -0.7667 -0.4586
 9805SOL     OW30855   0.527   3.144   3.138 -0.1143  0.0758 -0.5616
 9805SOL    HW130856   0.588   3.184   3.200  0.2087 -0.4272 -0.5457
 9805SOL    HW230857   0.583   3.116   3.065 -0.3547 -0.1811 -0.6506
 9806SOL     OW30858   2.600   1.146   1.883 -0.3418  0.4912 -0.3255
 9806SOL    HW130859   2.656   1.224   1.879 -0.0892  0.2778 -1.0774
 9806SOL    HW230860   2.660   1.073   1.874 -0.3485  0.0960  2.1193
 9807SOL     OW30861   4.588   2.974  12.060 -0.3348  0.2188 -0.1254
 9807SOL    HW130862   4.636   2.905  12.015 -0.2856  0.1952 -0.0375
 9807SOL    HW230863   4.504   2.977  12.015 -0.2099  0.3372 -0.3543
 9808SOL     OW30864   3.140   0.696   3.381 -0.0446 -0.3733 -0.2644
 9808SOL    HW130865   3.147   0.703   3.286 -1.2525  0.1842 -0.3341
 9808SOL    HW230866   3.195   0.767   3.415 -0.8608  0.4586 -0.6159
 9809SOL     OW30867   1.796   3.363   2.728  0.4361  0.0042  0.1491
 9809SOL    HW130868   1.861   3.424   2.694  0.1221 -0.1255 -0.6995
 9809SOL    HW230869   1.772   3.399   2.813  2.5074 -0.5989  1.0466
 9810SOL     OW30870   1.427   1.513   4.689  0.0961  0.1849 -0.3348
 9810SOL    HW130871   1.351   1.505   4.746  0.0373 -0.9656 -0.5617
 9810SOL    HW230872   1.438   1.608   4.677  0.4264  0.4834  1.9825
 9811SOL     OW30873   6.159   6.285   7.702  0.2780  0.0803  0.2370
 9811SOL    HW130874   6.129   6.216   7.761  1.6409 -0.5432  0.2516
 9811SOL    HW230875   6.253   6.293   7.720  0.3334  1.2824 -0.4380
 9812SOL     OW30876   0.522   1.904   1.268  0.1406 -0.3134 -0.6109
 9812SOL    HW130877   0.484   1.819   1.246 -1.6590  0.5235 -0.9301
 9812SOL    HW230878   0.468   1.936   1.340  1.0621  0.3827 -0.2168
 9813SOL     OW30879   4.884   0.127   0.292 -0.3916  0.0758  0.6809
 9813SOL    HW130880   4.873   0.155   0.201 -1.0976  2.1735  1.3441
 9813SOL    HW230881   4.914   0.205   0.338  0.0883 -0.9699  2.2414
 9814SOL     OW30882   2.329   1.659   2.448 -0.1553  0.9642  0.8113
 9814SOL    HW130883   2.399   1.609   2.490 -1.6031 -1.4003  0.6429
 9814SOL    HW230884   2.289   1.709   2.520  0.7447  1.1699  1.1858
 9815SOL     OW30885   3.706   4.155   0.236  0.1653  0.2087 -0.2012
 9815SOL    HW130886   3.632   4.156   0.176 -0.9228  2.0970  1.0584
 9815SOL    HW230887   3.698   4.073   0.284  0.7810 -1.1006 -2.2242
 9816SOL     OW30888   5.400   3.345   3.080  0.4502 -0.5749 -0.5493
 9816SOL    HW130889   5.352   3.315   3.003  0.2666 -2.6303  0.2851
 9816SOL    HW230890   5.488   3.310   3.069  0.8688  0.4594 -0.5591
 9817SOL     OW30891   0.512   6.586   0.719  0.4947  0.3724  0.0782
 9817SOL    HW130892   0.542   6.541   0.640 -4.0969 -1.3020 -1.0003
 9817SOL    HW230893   0.504   6.517   0.784 -2.2887  0.3142 -0.2079
 9818SOL     OW30894   3.716   3.749   4.376 -0.0428 -0.3552 -0.2929
 9818SOL    HW130895   3.764   3.815   4.327 -0.7330 -0.4146 -1.0798
 9818SOL    HW230896   3.663   3.704   4.310 -1.4274 -0.0634  0.5792
 9819SOL     OW30897   2.545   6.172   2.261  0.1225  0.2717  0.2046
 9819SOL    HW130898   2.600   6.161   2.183  0.7110  0.7131  0.5575
 9819SOL    HW230899   2.508   6.260   2.253  1.1697  0.8090  1.0366
 9820SOL     OW30900   6.597   4.465   5.739  0.4849 -0.2525 -0.0525
 9820SOL    HW130901   6.604   4.558   5.721 -1.1718 -0.1973 -0.5427
 9820SOL    HW230902   6.569   4.460   5.831  0.3906 -0.2651 -0.0823
 9821SOL     OW30903   5.898   3.393   5.893  0.3002 -0.0401 -0.2398
 9821SOL    HW130904   5.949   3.413   5.971  0.7312  0.1029 -0.5493
 9821SOL    HW230905   5.895   3.476   5.845 -0.7827  0.1135  0.0839
 9822SOL     OW30906   6.579   2.362  11.406 -0.2671 -0.0328 -0.2942
 9822SOL    HW130907   6.672   2.345  11.392 -0.2026 -0.1484  0.2269
 9822SOL    HW230908   6.552   2.292  11.466 -1.5298 -2.1954 -3.1860
 9823SOL     OW30909   3.562   3.841  10.270  0.2026  0.3606 -0.0442
 9823SOL    HW130910   3.494   3.889  10.316 -0.0214  0.7131 -0.7198
 9823SOL    HW230911   3.540   3.852  10.177 -1.2226 -2.9523 -0.2595
 9824SOL     OW30912   3.104   5.697   6.031 -0.0980 -0.2524  0.0102
 9824SOL    HW130913   3.104   5.732   5.942  0.3939 -0.0332  0.0976
 9824SOL    HW230914   3.011   5.684   6.051 -0.2670  0.7022 -0.1427
 9825SOL     OW30915   5.952   0.708   6.207 -0.2256  0.3102 -0.2223
 9825SOL    HW130916   5.928   0.800   6.219 -2.9910 -0.0168 -2.1706
 9825SOL    HW230917   5.910   0.662   6.280  0.8497  0.5091  0.5452
 9826SOL     OW30918   5.224   7.314   8.571 -0.0205  0.8103  0.2085
 9826SOL    HW130919   5.306   7.327   8.525 -0.8838 -0.2079 -1.7488
 9826SOL    HW230920   5.221   7.220   8.590  0.6328  1.2804  3.1159
 9827SOL     OW30921   2.086   4.613   6.552  0.1808 -0.5290  0.2434
 9827SOL    HW130922   2.166   4.665   6.550 -0.1136  0.0091  1.3747
 9827SOL    HW230923   2.030   4.658   6.616 -2.0456  0.5935 -2.2734
 9828SOL     OW30924   2.147   2.161   9.283  0.1088 -0.2563  0.0185
 9828SOL    HW130925   2.141   2.083   9.228 -0.6788  0.4165 -0.9044
 9828SOL    HW230926   2.174   2.230   9.222  1.9849 -0.0275  1.0509
 9829SOL     OW30927   3.912   7.755  10.678  0.0543  0.0010  0.5803
 9829SOL    HW130928   3.950   7.763  10.590  0.4036 -1.1044  0.6091
 9829SOL    HW230929   3.980   7.789  10.736  0.4787 -0.7217  0.5264
 9830SOL     OW30930   0.444   7.542   4.167  0.4768  0.1380  0.1175
 9830SOL    HW130931   0.429   7.626   4.209  0.9113  0.7287 -0.8765
 9830SOL    HW230932   0.357   7.510   4.145  0.2044 -0.3698  1.7704
 9831SOL     OW30933   1.627   6.570   3.225 -0.2042  0.4818  0.8498
 9831SOL    HW130934   1.574   6.561   3.304 -0.3044  1.7842  0.9596
 9831SOL    HW230935   1.678   6.650   3.240  0.4377  0.2475 -0.0229
 9832SOL     OW30936   0.340   2.299   8.457 -0.1650 -0.2821  0.1369
 9832SOL    HW130937   0.432   2.323   8.451 -0.3680  0.2065 -1.2669
 9832SOL    HW230938   0.300   2.369   8.509  0.0346  0.1662 -0.3043
 9833SOL     OW30939   7.815   0.915   0.883 -0.1141 -0.1210 -0.2857
 9833SOL    HW130940   7.843   0.964   0.806  0.8991 -1.2625 -0.6752
 9833SOL    HW230941   7.810   0.824   0.854 -2.5158 -0.2380  0.2706
 9834SOL     OW30942   7.595   1.921   4.532  0.6769  0.5304 -0.3412
 9834SOL    HW130943   7.544   1.859   4.584  1.3489 -0.7709 -1.1622
 9834SOL    HW230944   7.530   1.970   4.482  0.1434  0.2556  0.0703
 9835SOL     OW30945   0.434   2.940   3.960 -0.2240  0.5729 -0.2025
 9835SOL    HW130946   0.416   2.850   3.988 -0.8567  0.5818 -0.5799
 9835SOL    HW230947   0.388   2.950   3.877  2.3983  0.2527 -1.7960
 9836SOL     OW30948   3.790   0.810  12.312  0.0199 -0.4607 -0.7003
 9836SOL    HW130949   3.771   0.722  12.343 -0.6829 -0.1182 -0.1359
 9836SOL    HW230950   3.731   0.823  12.238 -1.4096  0.2676  0.4924
 9837SOL     OW30951   2.290   2.109   0.202 -0.4328  0.4492  0.1572
 9837SOL    HW130952   2.213   2.166   0.201  0.6341  1.9481 -1.4017
 9837SOL    HW230953   2.254   2.021   0.191 -1.9479  1.1000 -0.4197
 9838SOL     OW30954   1.133   7.120   0.475  0.4602  0.2779 -0.5679
 9838SOL    HW130955   1.083   7.077   0.406  1.7148 -1.4113 -0.4613
 9838SOL    HW230956   1.223   7.120   0.444  1.1742 -1.1020  1.2970
 9839SOL     OW30957   1.384   4.830  11.665  0.2418  0.5010 -0.4798
 9839SOL    HW130958   1.388   4.912  11.714  2.6205 -0.0836  0.4270
 9839SOL    HW230959   1.444   4.843  11.592 -0.0826 -0.1306 -0.8688
 9840SOL     OW30960   3.954   1.506  12.078  0.1839 -0.8105  0.3062
 9840SOL    HW130961   3.904   1.579  12.043  1.3580 -0.1580 -0.0579
 9840SOL    HW230962   3.963   1.525  12.172 -0.1704 -0.8952  0.3593
 9841SOL     OW30963   7.526   5.663   1.487  0.3701 -0.1420 -0.1505
 9841SOL    HW130964   7.599   5.680   1.546  0.6905  1.7604 -1.0192
 9841SOL    HW230965   7.448   5.688   1.538  0.4533 -0.6381  0.2234
 9842SOL     OW30966   3.118   5.560   1.138 -0.1626 -0.3009  0.4312
 9842SOL    HW130967   3.198   5.517   1.167 -0.7951 -1.7148  0.1570
 9842SOL    HW230968   3.048   5.512   1.181 -0.9825 -0.7208 -1.2751
 9843SOL     OW30969   3.532   5.144  10.474 -0.5458  0.3180  0.1948
 9843SOL    HW130970   3.555   5.126  10.566 -0.7915 -0.7834  0.0622
 9843SOL    HW230971   3.505   5.058  10.440  0.0059  0.6228 -1.0391
 9844SOL     OW30972   3.880   1.781   7.348  0.0929 -0.4171  0.1936
 9844SOL    HW130973   3.906   1.851   7.288  0.4569 -0.1456  0.6637
 9844SOL    HW230974   3.959   1.728   7.359 -0.3349 -1.2538 -0.6234
 9845SOL     OW30975   1.768   1.306   6.121  0.2401  0.0497  0.2111
 9845SOL    HW130976   1.733   1.289   6.209 -2.0818  0.5076 -0.5554
 9845SOL    HW230977   1.840   1.244   6.112  0.5489 -0.0144  2.4186
 9846SOL     OW30978   4.868   0.980   0.126  0.2137 -0.1977 -0.4084
 9846SOL    HW130979   4.851   0.919   0.198 -0.2095 -0.1157 -0.4409
 9846SOL    HW230980   4.856   0.928   0.047 -1.7540  0.3047 -0.4915
 9847SOL     OW30981   4.215   2.577   3.661  0.5382  0.2557  0.5959
 9847SOL    HW130982   4.186   2.605   3.574  1.2020 -0.6085  0.0817
 9847SOL    HW230983   4.214   2.657   3.713 -2.3647  0.3601  0.5185
 9848SOL     OW30984   2.501   7.155   3.638 -0.2711  0.1801  0.1183
 9848SOL    HW130985   2.417   7.191   3.610 -0.1862  0.6861  0.5038
 9848SOL    HW230986   2.565   7.193   3.578 -0.3161 -0.2597 -0.2200
 9849SOL     OW30987   4.788   7.574   4.955 -0.4701  0.4550  0.1262
 9849SOL    HW130988   4.729   7.517   4.906 -0.0135 -1.5064  1.6905
 9849SOL    HW230989   4.731   7.633   5.004 -1.1215 -0.4955  0.5510
 9850SOL     OW30990   5.181   7.315   0.102  0.0893 -0.2107  0.2677
 9850SOL    HW130991   5.117   7.313   0.173  0.8923 -2.3627  1.0362
 9850SOL    HW230992   5.149   7.381   0.041 -1.5699  0.4344  1.7738
 9851SOL     OW30993   2.786   7.007  12.017  0.1654  0.1687 -0.3435
 9851SOL    HW130994   2.764   6.927  11.969  0.9993 -0.6778  0.6276
 9851SOL    HW230995   2.845   6.978  12.086 -1.5451  1.2002  1.6696
 9852SOL     OW30996   6.804   6.379   8.259 -0.1370  0.0400  0.7062
 9852SOL    HW130997   6.714   6.367   8.291  0.2097 -1.6820  1.1298
 9852SOL    HW230998   6.857   6.385   8.339  0.3762 -1.1766  0.4695
 9853SOL     OW30999   1.379   3.227   8.661 -0.8126  0.0380 -0.0018
 9853SOL    HW131000   1.467   3.212   8.625 -1.3523 -0.6951 -1.0522
 9853SOL    HW231001   1.372   3.165   8.733 -0.7279 -0.4054 -0.3703
 9854SOL     OW31002   2.823   5.308   6.161 -0.2721 -0.1326 -0.1066
 9854SOL    HW131003   2.774   5.251   6.102  1.1666 -0.9374 -0.5835
 9854SOL    HW231004   2.768   5.314   6.240 -0.6448 -1.8931 -0.1946
 9855SOL     OW31005   1.659   6.929   8.965 -0.2347  0.4396 -0.4426
 9855SOL    HW131006   1.607   6.982   8.903  0.2205  0.8802 -0.4555
 9855SOL    HW231007   1.598   6.907   9.035 -0.1614  1.9209  0.1175
 9856SOL     OW31008   1.128   6.501  11.241 -0.0407  0.0737 -0.1275
 9856SOL    HW131009   1.038   6.508  11.275  0.0344  0.0589  0.0765
 9856SOL    HW231010   1.132   6.568  11.172  0.0657  0.6971  0.4704
 9857SOL     OW31011   3.100   0.902   1.733  0.3680  0.0691 -0.5500
 9857SOL    HW131012   3.177   0.928   1.783  0.3980  2.3259 -1.6666
 9857SOL    HW231013   3.055   0.984   1.712 -1.8189 -1.1131 -0.7886
 9858SOL     OW31014   0.098   3.700   1.341 -0.5343 -0.7707  0.2809
 9858SOL    HW131015   0.173   3.721   1.285  0.2454 -1.4803  1.0437
 9858SOL    HW231016   0.136   3.659   1.418 -1.7584 -1.7877  0.3683
 9859SOL     OW31017   4.502   0.261   5.751 -0.2560 -0.2855  0.2289
 9859SOL    HW131018   4.421   0.221   5.718 -0.5860  0.4109  0.1792
 9859SOL    HW231019   4.488   0.267   5.845 -0.3994  0.1487  0.1784
 9860SOL     OW31020   1.319   6.576   1.157  0.3940 -0.3228  0.5827
 9860SOL    HW131021   1.224   6.566   1.157  0.2981  0.4557  0.9255
 9860SOL    HW231022   1.344   6.562   1.248  0.4937  0.3088  0.6613
 9861SOL     OW31023   5.567   4.756   5.926 -0.0565  0.1270 -0.8975
 9861SOL    HW131024   5.534   4.703   5.853 -1.2744  1.6801 -1.5332
 9861SOL    HW231025   5.605   4.833   5.883  2.6492 -0.6256 -0.0632
 9862SOL     OW31026   7.844   4.120  11.938 -0.2633  0.0049  0.0038
 9862SOL    HW131027   7.887   4.117  11.853  1.4843  2.2194  0.7150
 9862SOL    HW231028   7.751   4.127  11.918 -0.3697 -3.7527 -1.6131
 9863SOL     OW31029   7.537   2.431  10.945  0.0698  0.2618  0.0110
 9863SOL    HW131030   7.552   2.467  11.032  1.5855 -1.2200  0.4084
 9863SOL    HW231031   7.591   2.484  10.887 -0.6119  0.9797  0.0162
 9864SOL     OW31032   6.598   2.317   0.904 -0.2677  0.2486 -0.1137
 9864SOL    HW131033   6.664   2.279   0.962 -0.3518  1.7889  1.0692
 9864SOL    HW231034   6.607   2.270   0.822  1.2491 -0.6190  0.5180
 9865SOL     OW31035   2.279   2.329   4.294 -0.0476 -0.8470 -0.6303
 9865SOL    HW131036   2.194   2.371   4.307  0.4155 -0.2779  0.7158
 9865SOL    HW231037   2.327   2.388   4.236  0.6796  0.6857  1.4132
 9866SOL     OW31038   3.109   2.459   7.483  0.3924 -0.2129  0.1159
 9866SOL    HW131039   3.106   2.390   7.549  1.4488  0.0430  0.4533
 9866SOL    HW231040   3.203   2.469   7.464  0.2744  1.3434  0.2930
 9867SOL     OW31041   7.829   7.504   5.341 -0.4240 -0.2848  0.7192
 9867SOL    HW131042   7.820   7.582   5.397 -2.2049 -0.0475  0.1637
 9867SOL    HW231043   7.742   7.492   5.302 -0.0171 -2.1850  0.2858
 9868SOL     OW31044   5.918   4.852   2.595  0.1039  0.1107 -0.1441
 9868SOL    HW131045   5.985   4.917   2.620  0.0808 -0.0293  0.2998
 9868SOL    HW231046   5.839   4.880   2.641  0.1809 -0.4207  0.3238
 9869SOL     OW31047   4.379   1.423   9.323 -0.1604 -0.0024  0.2415
 9869SOL    HW131048   4.347   1.480   9.253  2.0712 -1.4880 -2.2127
 9869SOL    HW231049   4.475   1.428   9.315  0.1182 -2.4378  1.2654
 9870SOL     OW31050   3.517   6.898   8.106  0.4627 -0.2930  0.0720
 9870SOL    HW131051   3.452   6.966   8.122 -0.7847 -1.0283 -1.6044
 9870SOL    HW231052   3.511   6.840   8.182 -1.6778 -0.9523 -0.5415
 9871SOL     OW31053   0.323   7.264   4.214 -0.0430 -0.0141  0.0650
 9871SOL    HW131054   0.352   7.231   4.129  1.8537  0.9028  0.2926
 9871SOL    HW231055   0.370   7.210   4.278 -0.2417  0.3159  0.4933
 9872SOL     OW31056   7.798   2.840  10.483 -0.0797  0.1545  0.0499
 9872SOL    HW131057   7.710   2.820  10.514  0.2877 -1.8577 -0.0572
 9872SOL    HW231058   7.817   2.772  10.418  0.7643  1.8034 -1.5242
 9873SOL     OW31059   6.879   1.417   6.729 -0.5255  0.7273 -0.0337
 9873SOL    HW131060   6.791   1.431   6.764 -0.8086  0.6859 -0.6957
 9873SOL    HW231061   6.889   1.486   6.663  0.3695  1.4169  0.7879
 9874SOL     OW31062   2.703   1.635   9.075  0.1612  0.4120  0.1443
 9874SOL    HW131063   2.615   1.635   9.036 -0.2001  2.8854  0.7266
 9874SOL    HW231064   2.698   1.570   9.146  0.1002 -2.3636 -2.2410
 9875SOL     OW31065   0.370   6.477   5.306  0.1730  0.7594  0.3584
 9875SOL    HW131066   0.369   6.469   5.401  0.3253 -0.4852  0.2721
 9875SOL    HW231067   0.280   6.500   5.283  0.0582  0.7424  0.7803
 9876SOL     OW31068   7.001   7.229   6.528  0.1492  0.2834 -0.4159
 9876SOL    HW131069   6.967   7.145   6.497 -0.1492  0.2839 -0.0931
 9876SOL    HW231070   6.965   7.238   6.616  1.3389  0.0727  0.1201
 9877SOL     OW31071   6.912   3.558   4.693  0.2718 -0.0704 -0.2443
 9877SOL    HW131072   6.828   3.590   4.659  0.7655  3.4837  1.3835
 9877SOL    HW231073   6.972   3.568   4.619  0.2829  2.6983  0.0123
 9878SOL     OW31074   4.511   7.328   8.236  0.0198  0.0804 -0.2830
 9878SOL    HW131075   4.530   7.275   8.314  1.4465 -0.9341 -1.2697
 9878SOL    HW231076   4.441   7.387   8.264  0.3295 -0.4072  1.6915
 9879SOL     OW31077   2.728   2.412   2.572  0.3317 -0.3335 -0.1651
 9879SOL    HW131078   2.797   2.468   2.537  0.6284  0.3871  1.4729
 9879SOL    HW231079   2.699   2.457   2.651  0.1794 -2.2132  0.8961
 9880SOL     OW31080   4.225   2.558   9.688 -0.3254  0.6528  0.4442
 9880SOL    HW131081   4.188   2.499   9.754  0.1020  1.4630  1.4414
 9880SOL    HW231082   4.153   2.576   9.628 -0.6010 -0.4447  0.4268
 9881SOL     OW31083   0.863   1.493   9.913  0.2638  0.3918 -0.1470
 9881SOL    HW131084   0.941   1.547   9.921  0.3257  0.1757  0.8428
 9881SOL    HW231085   0.801   1.529   9.976 -0.3500  0.3908 -0.7249
 9882SOL     OW31086   3.339   7.253   1.456  0.1201 -0.3102  0.1208
 9882SOL    HW131087   3.327   7.208   1.540 -0.0316 -0.6168 -0.0618
 9882SOL    HW231088   3.415   7.310   1.470 -0.8971  0.8891  0.9803
 9883SOL     OW31089   5.637   0.057   7.622 -0.0482  0.7322 -0.5138
 9883SOL    HW131090   5.615  -0.030   7.591  2.1682 -1.3832  3.0561
 9883SOL    HW231091   5.563   0.082   7.678 -0.2855  0.7530 -0.8345
 9884SOL     OW31092   1.130   2.636  11.731  0.1526 -0.0933  0.4421
 9884SOL    HW131093   1.063   2.703  11.748  1.7996  1.7704  0.0009
 9884SOL    HW231094   1.150   2.601  11.817 -0.0277  0.7250  0.8315
 9885SOL     OW31095   2.416   3.133   1.902 -0.0067 -0.0018  0.9735
 9885SOL    HW131096   2.450   3.218   1.874  0.5066 -0.1961  0.9967
 9885SOL    HW231097   2.416   3.080   1.822  0.0698 -0.1105  1.0464
 9886SOL     OW31098   0.608   4.591   9.316 -0.1565  0.3210  0.3175
 9886SOL    HW131099   0.702   4.607   9.314  0.0688 -0.8814  0.4221
 9886SOL    HW231100   0.581   4.616   9.404  0.3613 -0.8086  0.8113
 9887SOL     OW31101   7.164   3.541  11.873  0.2242 -0.2977 -0.8056
 9887SOL    HW131102   7.229   3.584  11.928 -0.0872 -0.6797 -0.1370
 9887SOL    HW231103   7.099   3.610  11.854 -0.6660 -0.6260  0.8740
 9888SOL     OW31104   0.721   5.782   7.947  0.2498  0.5885  0.1829
 9888SOL    HW131105   0.772   5.715   7.993 -0.4666  0.5160  0.8956
 9888SOL    HW231106   0.643   5.736   7.917 -0.3376  1.1245  0.8380
 9889SOL     OW31107   5.621   3.874   2.236 -0.5107  0.6123  0.1452
 9889SOL    HW131108   5.673   3.809   2.285 -0.4768 -0.0643 -0.7643
 9889SOL    HW231109   5.635   3.852   2.144 -1.2729  1.3192 -0.1540
 9890SOL     OW31110   7.526   5.177   5.287  0.0332 -0.9545 -0.3418
 9890SOL    HW131111   7.457   5.185   5.353 -0.7427 -1.3188 -1.0891
 9890SOL    HW231112   7.481   5.146   5.209  0.7839  0.3093 -1.3149
 9891SOL     OW31113   3.894   2.192   9.834 -0.6407  0.5252 -0.0035
 9891SOL    HW131114   3.907   2.100   9.811  0.0747  0.0160  2.1836
 9891SOL    HW231115   3.874   2.191   9.928  0.3075  2.6620  0.2884
 9892SOL     OW31116   5.081   7.157   4.017 -0.0977 -0.3315 -0.0141
 9892SOL    HW131117   4.987   7.154   4.036 -0.1840 -0.9797 -0.4747
 9892SOL    HW231118   5.096   7.243   3.978 -0.3499  0.0857  0.8079
 9893SOL     OW31119   1.706   0.685   4.468  0.2132 -0.3302  0.2216
 9893SOL    HW131120   1.777   0.635   4.509 -0.5551 -1.3421  0.3823
 9893SOL    HW231121   1.629   0.628   4.477 -0.4245  0.3540 -0.7399
 9894SOL     OW31122   6.387   4.758   6.155  0.4695  0.0857 -0.2849
 9894SOL    HW131123   6.392   4.811   6.075 -0.3732 -0.5899 -0.8093
 9894SOL    HW231124   6.312   4.793   6.202 -0.2310 -0.7693 -0.7450
 9895SOL     OW31125   7.309   6.692   6.043 -0.2669  0.7024 -0.4635
 9895SOL    HW131126   7.369   6.753   6.001  1.2108 -0.2611  0.1875
 9895SOL    HW231127   7.253   6.747   6.098 -0.6767  1.7091 -1.8383
 9896SOL     OW31128   4.667   1.121   1.843  0.3132  0.6382 -0.1686
 9896SOL    HW131129   4.604   1.193   1.840 -0.0208  0.3325 -0.6274
 9896SOL    HW231130   4.646   1.068   1.766  0.7635  0.2257 -0.0083
 9897SOL     OW31131   0.685   6.477   8.557 -0.1702 -0.3658 -0.3338
 9897SOL    HW131132   0.597   6.471   8.592 -0.8841 -1.1191 -2.1383
 9897SOL    HW231133   0.719   6.561   8.589 -2.2786  0.8885 -1.2065
 9898SOL     OW31134   3.799   2.644   1.264  0.5209  0.4725  0.0641
 9898SOL    HW131135   3.876   2.675   1.217 -0.9498 -0.2228 -3.1217
 9898SOL    HW231136   3.727   2.653   1.200 -1.8563  0.1227  2.4979
 9899SOL     OW31137   1.001   3.712  10.811 -0.4575 -0.1204 -0.0876
 9899SOL    HW131138   0.952   3.770  10.752 -0.6721 -0.4167 -0.2074
 9899SOL    HW231139   0.990   3.625  10.772  0.5136 -0.1368 -0.3465
 9900SOL     OW31140   3.604   0.262   4.987 -0.3389  0.3783  0.0760
 9900SOL    HW131141   3.583   0.262   5.081 -0.7631 -1.7551  0.0311
 9900SOL    HW231142   3.700   0.255   4.985 -0.3859 -0.5404  0.3880
 9901SOL     OW31143   5.456   0.243   8.385 -0.9820 -0.2749  0.2025
 9901SOL    HW131144   5.477   0.152   8.406  1.6281 -0.3250 -2.0263
 9901SOL    HW231145   5.417   0.278   8.465 -0.6922 -2.9237  1.6130
 9902SOL     OW31146   7.782   4.355   6.732  0.0847 -0.4166 -0.1911
 9902SOL    HW131147   7.866   4.309   6.738  0.0373 -0.5068 -0.2084
 9902SOL    HW231148   7.739   4.316   6.656  0.7659  0.8556 -1.2643
 9903SOL     OW31149   7.448   7.483   7.221 -0.2683 -1.1345  0.3780
 9903SOL    HW131150   7.467   7.439   7.138  0.0003  0.6689 -0.5596
 9903SOL    HW231151   7.363   7.524   7.207  0.6273  0.7614  0.2811
 9904SOL     OW31152   1.295   1.143   4.897  0.2328  0.4316  0.4539
 9904SOL    HW131153   1.261   1.181   4.816  0.4359  1.4141  0.8135
 9904SOL    HW231154   1.218   1.107   4.941 -0.0736  1.0251  0.4112
 9905SOL     OW31155   2.722   5.124   0.761  0.2826 -0.3815  0.4905
 9905SOL    HW131156   2.635   5.095   0.734 -1.0617  1.5887  2.3368
 9905SOL    HW231157   2.765   5.044   0.792 -0.6615 -1.4666 -0.8872
 9906SOL     OW31158   1.218   2.195   7.219 -0.1910  0.2035  0.0369
 9906SOL    HW131159   1.126   2.213   7.199 -1.1428 -0.6108  3.1545
 9906SOL    HW231160   1.250   2.146   7.142 -2.3634  0.3901 -1.0678
 9907SOL     OW31161   6.441   1.897   9.011 -0.4245  0.2821 -0.3245
 9907SOL    HW131162   6.505   1.908   8.940 -0.5731  0.0375 -0.5010
 9907SOL    HW231163   6.463   1.965   9.074 -0.4420  0.6613 -0.7230
 9908SOL     OW31164   5.963   0.337   3.823 -0.2430  0.5954 -0.3600
 9908SOL    HW131165   6.010   0.420   3.812 -1.9721  1.7922  0.5813
 9908SOL    HW231166   5.970   0.317   3.916 -1.0221  0.4599 -0.3205
 9909SOL     OW31167   7.317   0.819   8.317 -0.0374 -0.1804 -0.1795
 9909SOL    HW131168   7.345   0.831   8.407 -0.6857 -1.8308  0.2919
 9909SOL    HW231169   7.391   0.776   8.274 -0.0879 -0.2786 -0.1691
 9910SOL     OW31170   1.456   7.873   1.296  0.2845 -0.2954  0.2390
 9910SOL    HW131171   1.368   7.877   1.259 -0.3234  0.5924  1.7071
 9910SOL    HW231172   1.512   7.852   1.221 -1.1662 -0.9690 -0.7134
 9911SOL     OW31173   1.465   1.581   2.463 -0.4650  0.5822 -0.2665
 9911SOL    HW131174   1.554   1.548   2.470 -0.9395 -0.7774 -0.3441
 9911SOL    HW231175   1.409   1.506   2.484 -1.6016  1.2717 -0.7028
 9912SOL     OW31176   3.179   7.131   1.144 -0.2418 -0.4647 -0.2695
 9912SOL    HW131177   3.192   7.040   1.119 -0.2433 -0.6272  0.2973
 9912SOL    HW231178   3.260   7.175   1.119 -0.6092 -0.4145 -1.4344
 9913SOL     OW31179   4.501   3.048   0.873  0.1001 -0.5632  0.1671
 9913SOL    HW131180   4.551   3.084   0.800  2.1734 -0.3163  1.6273
 9913SOL    HW231181   4.523   3.105   0.947 -1.3852 -1.2328  1.1664
 9914SOL     OW31182   7.622   0.874   4.937  0.5231  0.2545  0.0578
 9914SOL    HW131183   7.563   0.947   4.916  0.5429  0.0123 -0.9149
 9914SOL    HW231184   7.567   0.810   4.981  0.3027  0.4803  0.1163
 9915SOL     OW31185   2.763   3.105   5.732  0.6407  0.3175 -0.1312
 9915SOL    HW131186   2.798   3.194   5.741  0.2497  0.4952 -0.3340
 9915SOL    HW231187   2.827   3.060   5.677  1.7322 -0.0378  1.3623
 9916SOL     OW31188   6.478   1.418  10.466 -0.0706  0.2066 -0.2537
 9916SOL    HW131189   6.402   1.476  10.475 -0.5077 -0.4957  0.7952
 9916SOL    HW231190   6.459   1.344  10.524  1.0768 -0.3533 -0.5541
 9917SOL     OW31191   2.310   3.582   9.944  0.0854 -0.0103  0.2454
 9917SOL    HW131192   2.292   3.489   9.957  1.4230 -0.4312 -0.6752
 9917SOL    HW231193   2.387   3.599   9.999  0.2460  0.3828 -0.0975
 9918SOL     OW31194   6.073   5.109   4.254 -0.0966 -0.1364  0.3763
 9918SOL    HW131195   6.165   5.125   4.232 -0.6007  2.1454 -0.3538
 9918SOL    HW231196   6.059   5.158   4.335 -0.6212 -0.6777  0.6226
 9919SOL     OW31197   4.511   5.709   7.978 -0.2014  0.0365  0.5080
 9919SOL    HW131198   4.462   5.627   7.982 -0.2484  0.0566  0.3289
 9919SOL    HW231199   4.595   5.689   8.020 -0.6057  0.1731  1.3990
 9920SOL     OW31200   5.830   7.814   7.867 -0.0184  0.2429  0.1555
 9920SOL    HW131201   5.899   7.797   7.931 -0.0066 -1.3664 -0.2398
 9920SOL    HW231202   5.814   7.908   7.873  0.7782  0.3041  1.6984
 9921SOL     OW31203   6.103   0.532   1.368  0.7300  0.4288  0.0893
 9921SOL    HW131204   6.096   0.602   1.432 -0.4833 -0.0968  0.5743
 9921SOL    HW231205   6.150   0.462   1.414 -0.8248 -0.2497  0.7322
 9922SOL     OW31206   1.090   7.478   8.458 -0.1760 -0.4268 -0.2527
 9922SOL    HW131207   1.072   7.547   8.394 -0.3214 -0.5216 -0.3123
 9922SOL    HW231208   1.007   7.432   8.468  0.3589 -1.7314 -1.5580
 9923SOL     OW31209   5.469   5.767  11.084  0.1828 -0.4496 -0.1109
 9923SOL    HW131210   5.525   5.745  11.158 -0.1930  1.0460  0.6694
 9923SOL    HW231211   5.429   5.851  11.109 -2.4010 -1.4294 -0.6281
 9924SOL     OW31212   1.890   5.877   1.414 -0.1080  0.1638 -0.7289
 9924SOL    HW131213   1.833   5.932   1.361  0.6532  0.0430 -1.6865
 9924SOL    HW231214   1.894   5.793   1.368 -0.7048 -0.4835  0.3566
 9925SOL     OW31215   4.494   0.985   1.010  0.3864  0.3156  0.5422
 9925SOL    HW131216   4.570   0.929   0.995 -0.2745 -0.4821  0.0753
 9925SOL    HW231217   4.492   0.999   1.104  1.1737  0.4466  0.5466
 9926SOL     OW31218   4.173   2.487  12.362  0.5685  0.2783 -0.9590
 9926SOL    HW131219   4.170   2.563  12.302  0.7410  1.8762  0.9615
 9926SOL    HW231220   4.251   2.501  12.414 -1.5349  1.0946  2.2652
 9927SOL     OW31221   3.126   0.234   7.777  0.2765  0.1907  0.0045
 9927SOL    HW131222   3.174   0.166   7.730  0.0718 -0.8011  1.1770
 9927SOL    HW231223   3.054   0.257   7.719  0.3703 -0.5730 -0.4274
 9928SOL     OW31224   6.975   4.866   9.025 -0.0340  0.0469 -0.6090
 9928SOL    HW131225   6.932   4.817   9.095  1.7811  0.1235  0.6469
 9928SOL    HW231226   7.054   4.815   9.006  1.1819  1.6912 -0.2517
 9929SOL     OW31227   0.351   4.641   7.738 -0.2376  0.7791  0.5059
 9929SOL    HW131228   0.285   4.636   7.807  1.4793 -0.3916  2.1564
 9929SOL    HW231229   0.430   4.604   7.777  1.0415  0.8099 -1.8528
 9930SOL     OW31230   6.723   3.120   9.590  0.0528 -0.9390 -0.3152
 9930SOL    HW131231   6.729   3.109   9.685 -3.2029  1.7243  0.3744
 9930SOL    HW231232   6.791   3.184   9.569  3.2738 -4.1320 -0.5836
 9931SOL     OW31233   6.614   2.944   7.937 -0.2671 -0.1733 -0.1704
 9931SOL    HW131234   6.539   2.887   7.922 -1.5951  0.8078  2.3199
 9931SOL    HW231235   6.658   2.948   7.851 -1.9306 -2.2775 -1.2237
 9932SOL     OW31236   7.345   6.078   4.056 -0.1721  0.0703 -0.2654
 9932SOL    HW131237   7.390   6.125   4.126 -1.0070  0.8101 -0.2107
 9932SOL    HW231238   7.374   5.987   4.066  1.7964  0.5983 -0.6276
 9933SOL     OW31239   0.010   3.502   8.293 -0.3932 -0.1205 -0.6500
 9933SOL    HW131240  -0.069   3.521   8.243 -0.9135 -0.0189  0.1937
 9933SOL    HW231241  -0.016   3.435   8.356  0.2496 -0.2423 -0.4983
 9934SOL     OW31242   2.202   0.850  11.054 -0.4284 -0.2721  0.2636
 9934SOL    HW131243   2.250   0.932  11.043 -1.4896  0.1897 -1.5348
 9934SOL    HW231244   2.181   0.846  11.147  0.8351  0.7998  0.6153
 9935SOL     OW31245   4.992   2.358   0.928 -0.0012  0.0558  0.3870
 9935SOL    HW131246   4.902   2.392   0.924  0.4001  1.0147 -1.4027
 9935SOL    HW231247   4.994   2.306   1.008 -2.0355  0.3520  0.6869
 9936SOL     OW31248   2.020   2.780   2.194  0.2660  0.1941  0.2124
 9936SOL    HW131249   1.960   2.841   2.151  1.3097  0.8578 -0.3670
 9936SOL    HW231250   2.102   2.829   2.201  0.7585 -0.7073  0.9217
 9937SOL     OW31251   5.366   7.286  10.644  0.1672  0.1375 -0.4020
 9937SOL    HW131252   5.462   7.283  10.642  0.1713  0.4043 -1.6943
 9937SOL    HW231253   5.342   7.339  10.568 -0.9947  0.7410  0.3533
 9938SOL     OW31254   2.196   3.579   8.064 -0.2914  0.1392  0.7657
 9938SOL    HW131255   2.268   3.520   8.040 -0.3602  0.5216 -0.4533
 9938SOL    HW231256   2.166   3.615   7.981 -0.6665  1.4303  1.4373
 9939SOL     OW31257   2.048   4.662   3.740 -0.3679 -0.3769 -0.5074
 9939SOL    HW131258   1.979   4.704   3.792  0.3837  1.2095 -0.7480
 9939SOL    HW231259   2.000   4.612   3.674 -1.3097  0.1753 -0.2694
 9940SOL     OW31260   4.542   5.836   0.081 -0.1388  0.2603 -0.2030
 9940SOL    HW131261   4.515   5.846   0.172  0.6224 -0.0871  0.0718
 9940SOL    HW231262   4.461   5.847   0.031 -0.5340  0.6486  0.4965
 9941SOL     OW31263   3.281   4.807   3.330 -0.4409 -1.1278  0.6924
 9941SOL    HW131264   3.205   4.859   3.354 -0.4239 -1.1665  0.8289
 9941SOL    HW231265   3.245   4.722   3.304 -0.4398 -1.1604  0.7990
 9942SOL     OW31266   6.551   5.343   0.277 -0.1386 -0.0538 -0.3126
 9942SOL    HW131267   6.644   5.318   0.273 -0.5372 -1.5830 -0.8912
 9942SOL    HW231268   6.516   5.318   0.192 -1.4241 -1.0410  0.4669
 9943SOL     OW31269   3.992   4.846   1.749  0.4337 -0.5175  0.6079
 9943SOL    HW131270   4.028   4.919   1.800 -1.5788  0.0659  1.3011
 9943SOL    HW231271   4.060   4.826   1.685  1.9919  0.4404  1.8634
 9944SOL     OW31272   6.358   7.264  11.855 -0.3886 -0.7678 -0.4449
 9944SOL    HW131273   6.416   7.285  11.928 -1.8479 -2.0223  1.1526
 9944SOL    HW231274   6.401   7.302  11.778  1.5736 -0.0579  0.9385
 9945SOL     OW31275   5.762   0.858   2.551  0.3204 -0.2164 -0.5291
 9945SOL    HW131276   5.857   0.859   2.541  0.2901 -1.2829 -0.9814
 9945SOL    HW231277   5.733   0.780   2.505 -0.6702 -0.5461  0.6052
 9946SOL     OW31278   7.264   0.051   4.658  0.9238  0.0867 -0.3380
 9946SOL    HW131279   7.194   0.069   4.720 -0.6108 -0.4131 -1.8426
 9946SOL    HW231280   7.341   0.036   4.713 -0.0080  1.1408  1.3500
 9947SOL     OW31281   4.196   0.907  10.158 -0.6690  0.2358 -0.1138
 9947SOL    HW131282   4.111   0.946  10.179 -0.4322  0.4578  0.4798
 9947SOL    HW231283   4.257   0.981  10.159 -0.7007  0.3471 -2.1461
 9948SOL     OW31284   3.633   7.890   3.757  0.7100  0.4147 -1.0164
 9948SOL    HW131285   3.676   7.811   3.723 -1.5226 -1.0879 -0.5484
 9948SOL    HW231286   3.599   7.935   3.679  1.6451  0.7376 -1.2513
 9949SOL     OW31287   7.449   1.327   0.903 -0.1322 -0.2024  0.0408
 9949SOL    HW131288   7.357   1.332   0.928 -0.1450  1.6060 -0.2545
 9949SOL    HW231289   7.448   1.287   0.816 -0.4578 -2.0014  0.8401
 9950SOL     OW31290   3.651   4.889   9.284 -0.3656  0.6762  0.4260
 9950SOL    HW131291   3.629   4.982   9.290  0.8255  1.0122 -0.0727
 9950SOL    HW231292   3.621   4.863   9.197  2.2044  1.4716 -0.8100
 9951SOL     OW31293   0.467   4.882   8.804  0.0594  0.1651 -0.2578
 9951SOL    HW131294   0.468   4.964   8.852 -0.8944  0.3548 -0.5316
 9951SOL    HW231295   0.415   4.823   8.858  1.5672 -0.5940  0.4277
 9952SOL     OW31296   0.719   0.294  11.958 -0.0658  0.2990  0.5804
 9952SOL    HW131297   0.678   0.263  12.039 -0.9961 -1.7050 -0.5828
 9952SOL    HW231298   0.810   0.266  11.966 -0.3483 -0.6698  0.5978
 9953SOL     OW31299   0.972   0.707   6.433 -0.2107 -0.4908  0.0940
 9953SOL    HW131300   0.970   0.665   6.518 -0.5428 -0.0566  0.3076
 9953SOL    HW231301   0.880   0.722   6.411 -0.1141 -0.2321 -0.1508
 9954SOL     OW31302   3.500   5.117   8.755  0.6566  0.2487  0.2015
 9954SOL    HW131303   3.500   5.023   8.737 -3.2179 -0.0245  0.7584
 9954SOL    HW231304   3.491   5.158   8.669 -0.2218 -0.0902  0.1159
 9955SOL     OW31305   6.777   7.506   9.669 -0.3425  0.2633 -0.1729
 9955SOL    HW131306   6.720   7.574   9.705 -1.9607  0.1675 -2.3188
 9955SOL    HW231307   6.782   7.526   9.575  0.8055 -1.4091 -0.5143
 9956SOL     OW31308   6.397   3.118   3.486  0.7707  0.1654 -0.3191
 9956SOL    HW131309   6.437   3.205   3.488 -0.2233  0.6242 -0.0764
 9956SOL    HW231310   6.308   3.133   3.452 -0.0995 -0.4653  1.5807
 9957SOL     OW31311   4.225   3.272  10.773 -0.5871  0.2485  0.1251
 9957SOL    HW131312   4.205   3.192  10.725  0.0536 -0.5916  1.2210
 9957SOL    HW231313   4.223   3.341  10.706 -2.5183 -0.4514 -0.5937
 9958SOL     OW31314   6.430   3.910   0.064  0.0319 -0.2860  0.1657
 9958SOL    HW131315   6.356   3.938   0.117 -0.3728 -1.1633  0.0870
 9958SOL    HW231316   6.477   3.991   0.043  0.1631  0.0946  1.7827
 9959SOL     OW31317   3.635   1.749   2.041 -0.1035  0.1810  0.4281
 9959SOL    HW131318   3.625   1.803   2.120 -2.0725  0.3172  0.1303
 9959SOL    HW231319   3.575   1.788   1.977  0.9328 -0.3537 -0.9198
 9960SOL     OW31320   7.524   1.827   8.371  0.2422  0.0996  0.0029
 9960SOL    HW131321   7.565   1.780   8.299  0.5950 -1.4300  1.1620
 9960SOL    HW231322   7.432   1.802   8.368  0.5493 -1.2400  1.0144
 9961SOL     OW31323   5.075   2.214  10.651  0.5162 -0.5016  0.3743
 9961SOL    HW131324   5.049   2.136  10.701  3.2683 -0.9601  1.2239
 9961SOL    HW231325   5.115   2.272  10.716  1.1133  0.3714 -0.7452
 9962SOL     OW31326   7.886   5.244   3.303 -0.4014 -0.6109  0.9080
 9962SOL    HW131327   7.946   5.304   3.257 -2.1130  0.2103 -0.3505
 9962SOL    HW231328   7.805   5.294   3.313 -1.7357 -2.5495  0.2913
 9963SOL     OW31329   1.139   2.286   7.621 -0.4251 -0.1814 -0.1000
 9963SOL    HW131330   1.071   2.345   7.653 -0.1964 -0.2342  0.4932
 9963SOL    HW231331   1.101   2.199   7.630  0.4467 -0.4013  2.2129
 9964SOL     OW31332   7.897   7.396   0.391 -0.0430 -0.4460  0.1333
 9964SOL    HW131333   7.820   7.341   0.380 -1.3754  1.2762  0.3854
 9964SOL    HW231334   7.948   7.353   0.460 -2.3490 -0.0485  2.2110
 9965SOL     OW31335   7.464   2.858   7.445 -0.1150  0.4654  0.4243
 9965SOL    HW131336   7.525   2.911   7.393 -0.1952 -0.2030 -0.3723
 9965SOL    HW231337   7.422   2.921   7.503  1.5550  0.8866  1.2251
 9966SOL     OW31338   5.464   2.594   8.571  0.4889 -0.2739 -0.1425
 9966SOL    HW131339   5.415   2.566   8.649  1.0575 -0.4203  0.1686
 9966SOL    HW231340   5.463   2.689   8.575 -0.9557 -0.2289 -0.8904
 9967SOL     OW31341   0.214   4.368   4.516 -0.3677 -0.3962  0.0954
 9967SOL    HW131342   0.184   4.390   4.428 -1.7684  0.3169  0.7052
 9967SOL    HW231343   0.292   4.315   4.503 -0.4398 -0.1410 -1.5655
 9968SOL     OW31344   3.049   7.834  10.702  0.5985 -0.1525 -0.0352
 9968SOL    HW131345   3.134   7.821  10.660  0.6819  1.9525 -0.6268
 9968SOL    HW231346   3.006   7.748  10.696  2.3127 -1.0189 -0.5235
 9969SOL     OW31347   0.773   0.081   6.098  0.2236 -0.2271  0.0234
 9969SOL    HW131348   0.852   0.034   6.069 -0.9523 -1.9440 -0.5673
 9969SOL    HW231349   0.708   0.061   6.031 -1.5588 -1.3612  1.9818
 9970SOL     OW31350   6.014   0.332   7.369 -0.3089 -0.1874 -0.9884
 9970SOL    HW131351   5.971   0.302   7.289  1.8112 -2.4789 -1.3764
 9970SOL    HW231352   5.982   0.274   7.437  0.2346 -0.2591 -0.7889
 9971SOL     OW31353   0.783   1.929   6.356  0.1833  0.5906 -0.1487
 9971SOL    HW131354   0.862   1.967   6.319 -0.0964  0.9744 -0.3658
 9971SOL    HW231355   0.814   1.871   6.426  0.6522  0.7074 -0.2578
 9972SOL     OW31356   7.092   0.800   9.151 -0.1816 -1.0635 -0.0709
 9972SOL    HW131357   7.038   0.875   9.176 -2.2783 -2.3205 -0.6203
 9972SOL    HW231358   7.164   0.838   9.101 -0.7344  0.6415  0.3706
 9973SOL     OW31359   7.260   3.195   8.205  0.0244 -0.2056 -0.4556
 9973SOL    HW131360   7.224   3.272   8.161  2.2386  0.5525 -1.1081
 9973SOL    HW231361   7.195   3.172   8.271 -1.5195  1.1115 -1.4428
 9974SOL     OW31362   0.210   1.831   9.882  0.5227 -0.1052  0.4056
 9974SOL    HW131363   0.295   1.874   9.878  0.1375  0.5776 -0.9605
 9974SOL    HW231364   0.159   1.871   9.812 -0.3876 -1.6799  0.1187
 9975SOL     OW31365   1.089   5.896  10.160  0.2646 -0.0222  0.1586
 9975SOL    HW131366   1.115   5.962  10.095 -0.0222 -0.3990 -0.3486
 9975SOL    HW231367   0.995   5.883  10.144  0.4585 -1.0374 -0.1902
 9976SOL     OW31368   2.041   1.491   2.359 -0.0134 -0.1876  0.1311
 9976SOL    HW131369   2.008   1.540   2.435 -2.0651 -3.1398  1.3483
 9976SOL    HW231370   2.030   1.551   2.286 -1.9454  1.3925  1.5820
 9977SOL     OW31371   7.176   2.689   9.288 -0.5271 -0.0981 -0.4887
 9977SOL    HW131372   7.271   2.697   9.288 -0.6115  1.7342  1.3092
 9977SOL    HW231373   7.152   2.690   9.196  1.1605 -0.2742 -0.9643
 9978SOL     OW31374   7.832   1.884   4.403 -0.2515 -0.1322  0.3326
 9978SOL    HW131375   7.817   1.816   4.337  0.5223  1.4582 -1.5874
 9978SOL    HW231376   7.745   1.901   4.439 -1.0568  0.2563 -1.6714
 9979SOL     OW31377   2.393   3.893   9.349  0.4498  0.8027  0.1243
 9979SOL    HW131378   2.485   3.887   9.324  0.5607 -0.0957  0.7225
 9979SOL    HW231379   2.394   3.944   9.430  0.6394 -0.9037  1.2331
 9980SOL     OW31380   6.631   3.856   1.972 -0.2884  0.1478  0.3124
 9980SOL    HW131381   6.657   3.944   2.000  1.1704  0.0533 -0.6065
 9980SOL    HW231382   6.709   3.821   1.929 -1.6216 -0.6034 -1.6678
 9981SOL     OW31383   7.470   0.551   4.906  0.1428 -0.1923 -0.3283
 9981SOL    HW131384   7.515   0.602   4.973 -1.3944 -0.6285  1.1117
 9981SOL    HW231385   7.487   0.597   4.824  0.7390  1.2827  0.5882
 9982SOL     OW31386   5.194   2.317   3.174 -0.0272  0.3095  0.8243
 9982SOL    HW131387   5.157   2.337   3.088 -0.2983 -0.4453  0.7579
 9982SOL    HW231388   5.119   2.284   3.225  0.2559  0.1688  1.1528
 9983SOL     OW31389   0.276   1.113   5.855  0.4972  0.2206  0.0038
 9983SOL    HW131390   0.260   1.057   5.779  0.8854  0.0462  0.0475
 9983SOL    HW231391   0.189   1.143   5.881 -0.1225 -2.6246  1.7144
 9984SOL     OW31392   6.106   1.303   1.251  0.1881 -0.1677  0.1124
 9984SOL    HW131393   6.114   1.358   1.328 -2.7882 -1.9169  1.8914
 9984SOL    HW231394   6.048   1.352   1.192  1.4527  0.6241 -0.5063
 9985SOL     OW31395   3.798   0.133   8.506 -0.0491 -0.4285  0.0644
 9985SOL    HW131396   3.812   0.116   8.599 -1.9568  2.2016  0.9917
 9985SOL    HW231397   3.703   0.146   8.499  0.2484  1.2657 -1.8434
 9986SOL     OW31398   0.232   7.469   9.482 -0.3391  0.2127 -0.8612
 9986SOL    HW131399   0.302   7.416   9.522  1.0483  1.6246 -1.3179
 9986SOL    HW231400   0.222   7.432   9.394  1.5679  1.4444 -1.6697
 9987SOL     OW31401   1.296   3.031   6.511 -0.1053 -0.2186  0.1333
 9987SOL    HW131402   1.201   3.014   6.511 -0.3815  1.1365  1.3913
 9987SOL    HW231403   1.309   3.096   6.580  1.6005  0.4873 -0.7843
 9988SOL     OW31404   7.789   6.127   3.554 -0.2065  0.0999  0.6437
 9988SOL    HW131405   7.864   6.108   3.611  0.8006  2.0380  0.0184
 9988SOL    HW231406   7.724   6.061   3.579  1.4024 -1.1610  1.7326
 9989SOL     OW31407   3.831   1.423   6.316 -0.1658  0.1752 -0.2742
 9989SOL    HW131408   3.889   1.350   6.336 -0.2515  0.4254  0.9668
 9989SOL    HW231409   3.744   1.384   6.314 -0.0650 -0.0164 -1.1043
 9990SOL     OW31410   6.744   7.106   2.624 -0.6685  0.1210 -0.1140
 9990SOL    HW131411   6.828   7.065   2.600 -2.0428 -1.7276 -2.1625
 9990SOL    HW231412   6.696   7.038   2.669 -1.7227  0.5694 -0.5307
 9991SOL     OW31413   7.598   3.240  11.623  0.7716  0.2560  0.2761
 9991SOL    HW131414   7.636   3.317  11.665  1.8487 -0.5285  0.7843
 9991SOL    HW231415   7.666   3.174  11.628  0.4487 -0.2688 -1.5715
 9992SOL     OW31416   7.015   7.816  11.626 -0.1031  0.0111  0.2326
 9992SOL    HW131417   7.110   7.830  11.620 -0.2895  0.9019 -1.2644
 9992SOL    HW231418   6.977   7.890  11.579 -1.5383 -0.5659  0.4243
 9993SOL     OW31419   0.753   4.856   9.577 -0.5254  0.9080  0.4068
 9993SOL    HW131420   0.704   4.812   9.508  2.0558 -1.9594  0.2089
 9993SOL    HW231421   0.828   4.895   9.533  1.4032 -1.3490  1.4768
 9994SOL     OW31422   3.937   6.384   1.802 -0.0233  0.2241  0.0925
 9994SOL    HW131423   3.858   6.345   1.765 -0.0180  1.7364 -1.7102
 9994SOL    HW231424   3.925   6.478   1.789  1.6329  0.5519  0.7136
 9995SOL     OW31425   4.604   5.834   8.857  0.2312 -0.2444 -0.2483
 9995SOL    HW131426   4.596   5.789   8.941  2.2608 -0.4374 -0.1286
 9995SOL    HW231427   4.526   5.890   8.853 -0.1553 -0.5968  1.5147
 9996SOL     OW31428   1.594   3.325  12.335 -0.1973 -0.3707 -0.3454
 9996SOL    HW131429   1.562   3.236  12.353  1.6330 -1.5612 -2.3704
 9996SOL    HW231430   1.643   3.349  12.414  0.8784 -1.9981 -0.4570
 9997SOL     OW31431   7.479   4.314   9.060 -0.3373  0.1358  0.1646
 9997SOL    HW131432   7.386   4.339   9.061 -0.2442  0.6891 -1.6080
 9997SOL    HW231433   7.523   4.385   9.013  0.9382 -0.2958  0.6627
 9998SOL     OW31434   3.538   7.219   7.491  0.1480 -0.1921 -0.5805
 9998SOL    HW131435   3.488   7.237   7.411  1.7289 -1.9927 -2.0873
 9998SOL    HW231436   3.607   7.286   7.491  1.0892 -1.1137 -1.6515
 9999SOL     OW31437   3.535   0.742  11.028 -0.6060 -0.3810 -0.3225
 9999SOL    HW131438   3.505   0.678  10.963 -1.1594 -1.2259  0.7261
 9999SOL    HW231439   3.626   0.759  11.005 -0.1345 -2.3237 -0.0527
10000SOL     OW31440   0.599   0.317   6.112 -0.1217  0.6146  0.2928
10000SOL    HW131441   0.622   0.238   6.160  1.4886  1.2958  0.6877
10000SOL    HW231442   0.650   0.387   6.153 -1.8034  1.9693  0.2274
10001SOL     OW31443   6.748   3.419  11.953  0.0707  0.2146 -0.2877
10001SOL    HW131444   6.666   3.376  11.977  0.0391  0.3401 -0.1673
10001SOL    HW231445   6.771   3.471  12.031  1.7008 -1.9828  0.7951
10002SOL     OW31446   4.734   2.282   9.292 -0.2093 -0.1225 -0.0046
10002SOL    HW131447   4.814   2.272   9.240 -0.2815  0.6526 -0.2885
10002SOL    HW231448   4.665   2.294   9.227 -0.5128 -0.4804  0.2475
10003SOL     OW31449   7.819   3.874  12.165 -0.0457 -0.1912 -0.1924
10003SOL    HW131450   7.862   3.958  12.155 -0.6622  0.4449  1.9802
10003SOL    HW231451   7.729   3.890  12.136 -0.0062 -0.2646 -0.3557
10004SOL     OW31452   3.304   5.618   0.062 -0.2279 -0.2640  0.6582
10004SOL    HW131453   3.224   5.568   0.078 -0.7367  0.0107 -0.8556
10004SOL    HW231454   3.375   5.555   0.076 -0.8233 -1.1970 -0.3705
10005SOL     OW31455   4.526   2.548   4.076 -0.1254 -0.5526 -0.1142
10005SOL    HW131456   4.566   2.499   4.148  0.8661 -0.7393 -0.7648
10005SOL    HW231457   4.436   2.562   4.104 -0.0348 -1.4853  0.7232
10006SOL     OW31458   5.535   3.289  12.205  0.6335 -0.0050  0.0865
10006SOL    HW131459   5.561   3.378  12.180  0.2597 -0.3619 -1.7153
10006SOL    HW231460   5.611   3.254  12.252  1.6039  0.5880 -0.9718
10007SOL     OW31461   1.357   2.233   6.188  0.1123 -0.4804 -0.0757
10007SOL    HW131462   1.363   2.159   6.249 -1.2365 -1.0112 -0.5522
10007SOL    HW231463   1.283   2.284   6.221  0.9260  0.5880  0.1465
10008SOL     OW31464   4.879   2.491   5.844  0.3760 -0.2825 -0.1144
10008SOL    HW131465   4.841   2.549   5.911 -2.1753 -2.2903  0.3311
10008SOL    HW231466   4.837   2.518   5.762 -0.4145 -1.0883  0.0066
10009SOL     OW31467   6.271   2.788  11.921  0.1919  0.3175 -0.5704
10009SOL    HW131468   6.328   2.833  11.984  0.0954  1.5027 -1.2933
10009SOL    HW231469   6.279   2.841  11.841 -1.2685  0.0098 -0.9332
10010SOL     OW31470   2.138   6.173   9.560 -0.6916  0.4954 -0.2605
10010SOL    HW131471   2.183   6.249   9.523  0.1324  0.4659  0.6528
10010SOL    HW231472   2.171   6.099   9.509  0.0875  0.5074  0.2224
10011SOL     OW31473   3.141   4.514   5.271  0.0141  0.6571  0.0915
10011SOL    HW131474   3.177   4.586   5.324 -1.0350  1.9121 -0.8209
10011SOL    HW231475   3.215   4.484   5.218  0.1300  2.1588 -0.6562
10012SOL     OW31476   6.745   1.076   8.706 -0.8136 -0.3505  0.5680
10012SOL    HW131477   6.674   1.124   8.749  0.2250  0.5519  1.3336
10012SOL    HW231478   6.824   1.102   8.754  0.2965  0.1070 -1.4040
10013SOL     OW31479   6.263   1.405  11.321  0.2987 -0.6824  0.6495
10013SOL    HW131480   6.194   1.384  11.383 -0.0771 -1.1523  0.0768
10013SOL    HW231481   6.341   1.362  11.356  0.3634  0.0285  1.4109
10014SOL     OW31482   0.106   0.830   2.118 -0.3356 -0.0865 -0.0201
10014SOL    HW131483   0.091   0.921   2.092  1.1035  0.1218 -0.1913
10014SOL    HW231484   0.168   0.797   2.054 -0.0113 -0.8606  0.6841
10015SOL     OW31485   6.804   6.206   2.538 -0.5186  0.4565 -0.1911
10015SOL    HW131486   6.843   6.166   2.461  0.3008  0.4454  0.2202
10015SOL    HW231487   6.751   6.278   2.503  1.7572  2.0122 -0.6494
10016SOL     OW31488   5.241   1.322   6.040  0.1657 -0.1900 -0.1629
10016SOL    HW131489   5.193   1.326   5.957  0.2427 -2.5439 -0.3934
10016SOL    HW231490   5.218   1.236   6.077  1.1267  0.2819  1.6439
10017SOL     OW31491   0.898   6.856   1.105  0.3750  0.0817 -0.4830
10017SOL    HW131492   0.827   6.893   1.157 -0.6990 -2.1712 -0.2489
10017SOL    HW231493   0.974   6.859   1.163 -0.2267 -0.1507  0.3331
10018SOL     OW31494   7.239   0.074   1.625 -0.5082  0.1797  0.5876
10018SOL    HW131495   7.317   0.023   1.646  0.0605 -0.1839 -2.0459
10018SOL    HW231496   7.268   0.135   1.557 -2.4017  0.3516 -0.1129
10019SOL     OW31497   3.055   0.404   0.258  0.1070  0.1163 -0.2094
10019SOL    HW131498   3.025   0.439   0.174  1.0040 -0.5243 -0.8208
10019SOL    HW231499   3.006   0.454   0.324 -1.0176  0.2451 -1.1128
10020SOL     OW31500   1.901   0.853   1.719  0.3291 -1.0247  0.5419
10020SOL    HW131501   1.942   0.824   1.800 -1.7421 -0.2777  1.9337
10020SOL    HW231502   1.892   0.948   1.730 -2.2787 -1.2240  0.6174
10021SOL     OW31503   0.838   4.944   6.619 -0.3120 -0.1084  0.0459
10021SOL    HW131504   0.769   4.898   6.571 -0.8336  0.3003  0.3841
10021SOL    HW231505   0.815   4.932   6.711 -0.7719  1.2571  0.1369
10022SOL     OW31506   1.829   4.656   4.427  0.1242  0.1684  0.0816
10022SOL    HW131507   1.901   4.599   4.400 -1.5551 -1.4477 -1.2693
10022SOL    HW231508   1.871   4.739   4.451  2.2239  0.4233 -3.7356
10023SOL     OW31509   5.463   6.224  11.952 -0.1160  0.0679 -0.1271
10023SOL    HW131510   5.509   6.246  12.033 -0.2777  0.1649 -0.0614
10023SOL    HW231511   5.413   6.303  11.931 -0.8095 -0.2755  0.1803
10024SOL     OW31512   2.357   7.884   8.331 -0.1116  0.3844  0.3164
10024SOL    HW131513   2.390   7.796   8.350 -0.0437  0.5704  1.0851
10024SOL    HW231514   2.412   7.916   8.260 -0.1625 -0.2097  0.0097
10025SOL     OW31515   0.952   1.569   8.283 -0.1360 -0.1029  0.4111
10025SOL    HW131516   0.914   1.654   8.263  1.6833  0.6879  0.1120
10025SOL    HW231517   0.975   1.531   8.198 -0.1075 -0.4913  0.5879
10026SOL     OW31518   7.430   7.431   7.700  0.1722 -0.1711  0.1070
10026SOL    HW131519   7.396   7.516   7.729 -0.6567  0.3089 -2.0802
10026SOL    HW231520   7.516   7.452   7.664  0.4817 -0.4725  0.6682
10027SOL     OW31521   5.290   0.797   1.617  0.4474 -0.4939 -0.4657
10027SOL    HW131522   5.370   0.838   1.649  1.1098  0.4647 -3.0931
10027SOL    HW231523   5.225   0.814   1.685  1.6891  1.5497  0.2794
10028SOL     OW31524   0.323   4.877  11.733  0.1360  0.4089  0.2502
10028SOL    HW131525   0.286   4.912  11.814 -1.0368  0.3477 -0.2363
10028SOL    HW231526   0.377   4.948  11.698 -0.5370  0.9821  0.3469
10029SOL     OW31527   6.638   3.300  10.842  0.2919 -0.2332  0.6696
10029SOL    HW131528   6.585   3.377  10.822 -1.1045 -0.8690  1.7576
10029SOL    HW231529   6.639   3.250  10.760 -0.3529  0.0424  0.4861
10030SOL     OW31530   5.156   2.737   4.128 -0.0589 -0.1207  0.6120
10030SOL    HW131531   5.204   2.672   4.077  0.2303  0.9016 -0.4632
10030SOL    HW231532   5.171   2.712   4.219  2.7325  0.2624  0.3415
10031SOL     OW31533   4.723   0.955   9.021 -0.2764  0.0948 -0.1492
10031SOL    HW131534   4.720   0.943   8.926  0.1129 -0.1241 -0.1394
10031SOL    HW231535   4.732   0.866   9.056  2.8188  0.3279 -0.0749
10032SOL     OW31536   4.337   2.013  11.028 -0.5549 -0.4021  0.0262
10032SOL    HW131537   4.405   1.969  11.079 -0.5427 -1.0171 -0.5100
10032SOL    HW231538   4.283   2.058  11.093  0.0967 -0.2847  0.4890
10033SOL     OW31539   1.209   6.420   2.355  0.0366 -0.0424  0.2035
10033SOL    HW131540   1.161   6.339   2.371 -0.4837  0.4336  1.1349
10033SOL    HW231541   1.293   6.407   2.400 -0.6830  0.5477  1.7877
10034SOL     OW31542   7.154   1.536   8.663  0.5479 -0.2069  0.0333
10034SOL    HW131543   7.232   1.504   8.616 -0.1064  0.6948 -1.7766
10034SOL    HW231544   7.157   1.631   8.650  0.0974  0.0269  1.5123
10035SOL     OW31545   3.068   2.417   6.686 -0.4855 -0.3788 -0.3173
10035SOL    HW131546   3.000   2.350   6.701 -0.8319 -0.2091 -1.0758
10035SOL    HW231547   3.025   2.499   6.709 -0.2463 -0.3580  0.0560
10036SOL     OW31548   6.800   4.974   8.060  0.0852 -0.3530 -0.2736
10036SOL    HW131549   6.734   5.023   8.110 -0.4214 -1.3332  0.0392
10036SOL    HW231550   6.751   4.904   8.017  0.6057  0.1037 -1.6963
10037SOL     OW31551   1.831   6.011  11.578 -0.8739 -0.5225 -0.3849
10037SOL    HW131552   1.801   5.986  11.665  1.2366 -0.0538  0.5450
10037SOL    HW231553   1.760   6.065  11.543 -2.3735 -1.8802  0.4394
10038SOL     OW31554   1.405   2.576   0.748  0.1208  0.3003 -0.7563
10038SOL    HW131555   1.475   2.543   0.804 -0.3434 -0.2313 -0.4753
10038SOL    HW231556   1.444   2.651   0.702  0.6846  0.3780 -0.1671
10039SOL     OW31557   0.922   2.021   1.391 -0.3799  0.3248  0.3174
10039SOL    HW131558   0.952   2.086   1.328 -1.9422  0.3667 -0.4426
10039SOL    HW231559   0.882   2.072   1.461 -0.4826  0.2201  0.3352
10040SOL     OW31560   3.736   0.950   6.654  0.1613 -0.3872 -0.1112
10040SOL    HW131561   3.750   0.898   6.575  0.6340 -0.1386 -0.1935
10040SOL    HW231562   3.792   1.026   6.643  2.1694 -1.5264  1.6000
10041SOL     OW31563   7.096   2.374   0.125 -0.0322 -0.5093 -0.2079
10041SOL    HW131564   7.156   2.362   0.051 -1.5939 -0.7452 -1.4794
10041SOL    HW231565   7.048   2.454   0.103 -0.6046 -0.6586  0.4883
10042SOL     OW31566   2.791   4.381   7.729  0.0012  0.5434  0.0746
10042SOL    HW131567   2.740   4.300   7.724 -0.9974  1.0754  1.2013
10042SOL    HW231568   2.854   4.373   7.657  0.5667 -1.6485  0.7221
10043SOL     OW31569   4.495   6.280  12.074  0.2938  0.3717  0.1550
10043SOL    HW131570   4.520   6.371  12.093  2.2077 -0.2301  0.7411
10043SOL    HW231571   4.567   6.228  12.109 -0.2949 -1.3311 -1.0529
10044SOL     OW31572   2.126   0.814   4.596 -0.1950 -0.4545 -0.0286
10044SOL    HW131573   2.046   0.763   4.611  0.5905 -1.7546 -0.1200
10044SOL    HW231574   2.144   0.856   4.680 -1.3810  0.4975 -0.2153
10045SOL     OW31575   6.221   1.211   2.047 -0.4075 -0.6202  0.6736
10045SOL    HW131576   6.260   1.131   2.013 -2.4770 -1.1932 -0.5178
10045SOL    HW231577   6.208   1.266   1.970  0.5781  0.7154  1.4188
10046SOL     OW31578   5.584   3.335   4.097  0.3500 -0.1704 -0.1540
10046SOL    HW131579   5.678   3.348   4.110  0.1366 -0.8356  2.5418
10046SOL    HW231580   5.573   3.240   4.093 -0.4010 -0.2111  1.8511
10047SOL     OW31581   2.413   5.194   8.652  0.2583 -0.3198 -0.1192
10047SOL    HW131582   2.417   5.125   8.718  2.5995 -0.5867 -0.4458
10047SOL    HW231583   2.463   5.158   8.578  0.3582  1.1922 -0.8076
10048SOL     OW31584   5.649   1.381   8.807 -0.1773 -0.0004  0.1491
10048SOL    HW131585   5.707   1.343   8.741  0.2794  1.5587 -0.3883
10048SOL    HW231586   5.685   1.468   8.824 -1.4214  0.3756  1.0258
10049SOL     OW31587   0.300   2.195  12.298  0.4720  0.2688 -1.1490
10049SOL    HW131588   0.259   2.271  12.341  2.0026  1.2204 -1.3273
10049SOL    HW231589   0.344   2.231  12.222  0.1236 -1.0204 -1.9898
10050SOL     OW31590   7.447   3.772   6.412  0.0744  0.3124 -0.0268
10050SOL    HW131591   7.414   3.797   6.326 -1.1486 -0.5588  0.1595
10050SOL    HW231592   7.527   3.722   6.393  0.5983  1.3216 -0.5598
10051SOL     OW31593   0.641   3.910   5.527  0.6364 -0.3235 -0.0431
10051SOL    HW131594   0.572   3.959   5.481  2.2381  0.3990 -1.7797
10051SOL    HW231595   0.706   3.976   5.549  0.3740 -0.8286  2.5088
10052SOL     OW31596   6.046   2.457   0.762  0.6911 -0.2008 -0.5623
10052SOL    HW131597   6.059   2.486   0.853 -1.1145 -0.6423 -0.1155
10052SOL    HW231598   5.993   2.527   0.723  1.7067  0.1241 -1.3785
10053SOL     OW31599   1.782   2.839  10.159 -0.2239  0.3191  0.3182
10053SOL    HW131600   1.744   2.853  10.072  1.2801  0.5933 -0.3199
10053SOL    HW231601   1.739   2.759  10.190 -0.5851  0.0631 -0.7827
10054SOL     OW31602   6.195   5.088   8.454  0.1821  0.1768 -0.2629
10054SOL    HW131603   6.208   5.046   8.540 -0.8961 -0.9704 -0.6315
10054SOL    HW231604   6.165   5.176   8.475 -0.5058 -0.2323  0.5652
10055SOL     OW31605   1.233   1.402   2.929  0.0745  0.0914 -0.5101
10055SOL    HW131606   1.224   1.326   2.871 -1.6022 -0.3116  0.2214
10055SOL    HW231607   1.240   1.365   3.017  0.7711  0.7560 -0.2745
10056SOL     OW31608   5.417   6.297   1.718 -0.0930  0.5303 -0.6012
10056SOL    HW131609   5.328   6.315   1.689 -0.2382 -0.6915 -0.9528
10056SOL    HW231610   5.459   6.255   1.643 -0.6534 -3.2306  0.9625
10057SOL     OW31611   3.150   1.451   7.744  0.0301 -0.3436 -0.5465
10057SOL    HW131612   3.099   1.405   7.677  0.7497  0.1379 -1.4437
10057SOL    HW231613   3.239   1.418   7.734 -0.2974 -2.3950  2.0761
10058SOL     OW31614   0.109   2.197   6.588 -0.0796 -0.2863 -0.1179
10058SOL    HW131615   0.153   2.143   6.653  0.3854 -0.2709 -0.4098
10058SOL    HW231616   0.046   2.248   6.637 -0.2968 -0.8590  0.2074
10059SOL     OW31617   6.192   1.312   4.450 -0.1817 -0.6646 -0.6302
10059SOL    HW131618   6.212   1.266   4.369 -0.9185 -1.3006 -0.4498
10059SOL    HW231619   6.107   1.353   4.435 -0.6316 -1.3299  0.0499
10060SOL     OW31620   2.120   0.052   7.199 -0.7952  0.7209 -0.3415
10060SOL    HW131621   2.176   0.122   7.166 -1.0683  1.2975  0.3828
10060SOL    HW231622   2.045   0.052   7.140 -0.1205  0.0512 -1.2212
10061SOL     OW31623   0.395   5.509   6.753  0.1025 -0.5509 -0.2386
10061SOL    HW131624   0.368   5.600   6.761  1.9409 -0.0909  1.8355
10061SOL    HW231625   0.478   5.512   6.705 -1.0846 -1.4604 -2.4822
10062SOL     OW31626   1.418   2.563   8.680 -0.0701  0.3678 -0.2345
10062SOL    HW131627   1.474   2.492   8.648 -1.6333 -0.9637 -0.1569
10062SOL    HW231628   1.366   2.588   8.603 -0.9045  0.0326  0.2000
10063SOL     OW31629   6.401   2.794  10.224 -0.3780  0.7445  0.3269
10063SOL    HW131630   6.395   2.699  10.222 -0.6288  0.7484  0.7604
10063SOL    HW231631   6.436   2.814  10.310  0.1706  1.0259  0.0442
10064SOL     OW31632   0.639   1.716   6.150  0.0736  0.6191  0.1722
10064SOL    HW131633   0.659   1.782   6.215  2.0108 -0.6038  0.8999
10064SOL    HW231634   0.666   1.633   6.190 -1.8322 -0.5938 -0.8801
10065SOL     OW31635   2.556   2.107   0.287 -0.0034 -0.4139  0.1816
10065SOL    HW131636   2.581   2.151   0.368 -0.4342 -1.5722  0.9701
10065SOL    HW231637   2.462   2.123   0.279 -0.3762 -2.0588  1.0469
10066SOL     OW31638   2.742   4.760  11.908 -0.3342  0.4675 -0.1834
10066SOL    HW131639   2.681   4.709  11.960 -0.1399  0.0672 -0.3488
10066SOL    HW231640   2.813   4.781  11.969  0.7236 -1.4344 -0.7050
10067SOL     OW31641   4.090   0.201  11.984  0.6260  0.4369  0.0579
10067SOL    HW131642   4.070   0.292  12.007  1.4864  0.7340 -0.3401
10067SOL    HW231643   4.105   0.159  12.069 -0.6836  0.4356  0.3022
10068SOL     OW31644   1.463   5.015   7.738 -0.5272  0.2272  0.1916
10068SOL    HW131645   1.557   5.002   7.721 -0.4504  0.0321  0.7490
10068SOL    HW231646   1.420   4.977   7.662 -0.1689 -0.1344  0.1641
10069SOL     OW31647   3.370   3.683   4.049 -0.1091 -0.2991  0.3915
10069SOL    HW131648   3.301   3.644   3.996 -0.5792  0.1377  0.6693
10069SOL    HW231649   3.404   3.754   3.996  0.1220 -0.5109  0.2570
10070SOL     OW31650   1.013   5.054  10.634  0.2651  0.1222  0.2923
10070SOL    HW131651   0.924   5.065  10.667  0.3481 -1.2055  1.0183
10070SOL    HW231652   1.068   5.099  10.699  0.0307  3.1232 -1.3988
10071SOL     OW31653   6.824   6.509   4.651 -0.0401 -0.3955  0.4991
10071SOL    HW131654   6.861   6.504   4.739 -0.8378  0.4788  0.9042
10071SOL    HW231655   6.889   6.467   4.595  0.2906 -1.3385  1.5556
10072SOL     OW31656   0.763   4.353  10.103  0.6901 -0.0661 -0.5525
10072SOL    HW131657   0.825   4.288  10.070 -0.0603 -1.0665 -0.0851
10072SOL    HW231658   0.700   4.364  10.032 -0.4672 -1.6089  0.1690
10073SOL     OW31659   3.083   3.520   5.637  0.0964 -0.2295  0.7015
10073SOL    HW131660   3.154   3.579   5.661 -1.7931  1.8846  1.4245
10073SOL    HW231661   3.121   3.463   5.569  2.2030  1.3734  0.4412
10074SOL     OW31662   0.728   2.720   8.988 -0.1293 -0.2429 -0.2836
10074SOL    HW131663   0.644   2.682   9.013 -1.0628  2.6121  1.3234
10074SOL    HW231664   0.707   2.776   8.913  0.1348  1.1326  0.6443
10075SOL     OW31665   2.419   5.791   5.810  0.4444  0.0040  0.7788
10075SOL    HW131666   2.376   5.822   5.890  1.4660  0.4846  1.1656
10075SOL    HW231667   2.353   5.802   5.741 -0.0669  0.6750  1.3594
10076SOL     OW31668   5.222   2.984   5.897  0.2019 -0.1496  0.0811
10076SOL    HW131669   5.206   3.065   5.848 -0.8197 -0.2693  0.2010
10076SOL    HW231670   5.156   2.923   5.865  0.3453 -0.6342  0.6913
10077SOL     OW31671   0.011   7.584   7.158  0.5856  0.3190 -0.0129
10077SOL    HW131672   0.009   7.628   7.074 -0.3964  1.4514  0.5741
10077SOL    HW231673   0.038   7.652   7.220 -2.8954  0.7779  1.2254
10078SOL     OW31674   1.724   3.594   2.328 -0.0606 -0.1056  0.0303
10078SOL    HW131675   1.657   3.658   2.307 -0.4502  0.3404  2.2895
10078SOL    HW231676   1.715   3.526   2.261 -1.3581  0.9461 -0.9181
10079SOL     OW31677   5.332   2.892   6.674 -0.8411  0.2271 -0.0604
10079SOL    HW131678   5.257   2.948   6.655  0.0868  1.6665  0.3873
10079SOL    HW231679   5.403   2.927   6.620 -0.4781 -1.1156 -0.4885
10080SOL     OW31680   5.464   1.424   3.728  0.3341  0.4958 -0.1332
10080SOL    HW131681   5.475   1.341   3.682 -0.0214  0.3741  0.0027
10080SOL    HW231682   5.480   1.491   3.661  2.2959  0.3464  0.1085
10081SOL     OW31683   2.358   6.140  12.309  0.0595 -0.0167 -0.2359
10081SOL    HW131684   2.315   6.197  12.373 -0.4598  0.8868 -1.3485
10081SOL    HW231685   2.373   6.058  12.356  0.4614  0.8870  1.2904
10082SOL     OW31686   1.894   4.893   1.957 -0.3249  0.0218  0.0188
10082SOL    HW131687   1.813   4.844   1.949 -0.2018 -0.0706 -0.7122
10082SOL    HW231688   1.906   4.934   1.872  0.8672 -0.6929 -0.1781
10083SOL     OW31689   6.772   2.439   4.230  0.6809 -0.3180 -0.2540
10083SOL    HW131690   6.808   2.375   4.169  1.9627 -1.3114  1.4400
10083SOL    HW231691   6.848   2.489   4.260  0.3571 -0.8463  1.6016
10084SOL     OW31692   3.897   7.535   2.155  0.3746  0.5432 -0.1964
10084SOL    HW131693   3.937   7.612   2.113 -0.5151  1.1996  0.1338
10084SOL    HW231694   3.969   7.472   2.161  0.1711 -0.4134 -4.4738
10085SOL     OW31695   6.217   6.054   5.490 -0.1757  0.2493 -0.1425
10085SOL    HW131696   6.166   6.121   5.446  0.6334  1.6354  0.9613
10085SOL    HW231697   6.293   6.100   5.525 -0.7224 -0.7495  2.6391
10086SOL     OW31698   1.695   4.302   8.140 -0.3583  0.3657 -0.0143
10086SOL    HW131699   1.776   4.261   8.108 -0.5480  0.3565 -0.4823
10086SOL    HW231700   1.677   4.256   8.222  0.6361  1.0237  0.5975
10087SOL     OW31701   3.019   6.983   0.194 -0.6492  0.5720 -0.2809
10087SOL    HW131702   2.955   6.954   0.259 -0.4139  2.2221  0.7501
10087SOL    HW231703   2.971   7.043   0.137 -0.3205  0.8906 -0.2289
10088SOL     OW31704   5.646   7.576   5.165  0.1120 -0.7542  0.5408
10088SOL    HW131705   5.716   7.540   5.111  0.4626  0.0044  0.4771
10088SOL    HW231706   5.690   7.602   5.246 -0.0786 -0.2214  0.4776
10089SOL     OW31707   4.107   1.543   9.215  0.0120  0.6968 -0.1746
10089SOL    HW131708   4.127   1.626   9.172 -1.0730  0.5363 -1.0344
10089SOL    HW231709   4.129   1.476   9.151 -0.7110  0.4053 -0.1316
10090SOL     OW31710   3.086   4.785   6.533 -0.0134 -0.4427 -0.1008
10090SOL    HW131711   3.004   4.791   6.485 -0.6953 -1.2523  0.9246
10090SOL    HW231712   3.138   4.858   6.500 -1.2138  0.2049 -0.6197
10091SOL     OW31713   4.492   4.064   5.958  0.2365  0.0600  0.3028
10091SOL    HW131714   4.554   4.004   5.917  1.1658  0.3048  1.3266
10091SOL    HW231715   4.542   4.144   5.975 -0.6343  0.6539  0.1810
10092SOL     OW31716   2.400   7.805   3.272  0.3886  0.0179 -0.4121
10092SOL    HW131717   2.321   7.752   3.280  0.6982 -0.2293  1.4670
10092SOL    HW231718   2.472   7.742   3.265  0.7884  0.0848  2.1223
10093SOL     OW31719   3.174   2.930   1.331  0.6511  0.1850 -0.4652
10093SOL    HW131720   3.112   2.886   1.389  1.4638 -1.1917 -0.5867
10093SOL    HW231721   3.228   2.983   1.391  0.7696 -0.3600 -0.0716
10094SOL     OW31722   3.156   2.138   0.672 -0.4987  0.0448  0.2965
10094SOL    HW131723   3.237   2.189   0.669  0.2256 -1.0963 -0.7653
10094SOL    HW231724   3.110   2.169   0.750  1.3735  0.1039  1.4126
10095SOL     OW31725   5.001   3.238   2.349 -0.1892 -0.2596 -0.1767
10095SOL    HW131726   5.088   3.202   2.367  0.5316  1.3954 -0.2042
10095SOL    HW231727   4.947   3.206   2.422  0.9675  0.3947  1.0216
10096SOL     OW31728   5.780   2.550   2.761 -0.0612  0.5261 -0.2398
10096SOL    HW131729   5.736   2.561   2.845 -0.6651 -1.9763 -0.1584
10096SOL    HW231730   5.861   2.503   2.782 -0.5823 -0.8074 -1.0999
10097SOL     OW31731   6.247   5.317   6.165 -0.2404  0.4769  0.2592
10097SOL    HW131732   6.158   5.290   6.188  0.1869 -0.2783  1.0475
10097SOL    HW231733   6.236   5.406   6.129 -1.2527  0.5584  0.7345
10098SOL     OW31734   2.178   7.261   8.011  0.6712  0.0420 -0.2540
10098SOL    HW131735   2.133   7.209   8.077  0.7850  1.2759  0.8617
10098SOL    HW231736   2.111   7.320   7.976  0.5669 -0.7378 -1.4084
10099SOL     OW31737   2.927   7.610   6.197 -0.7099  0.1814  0.2431
10099SOL    HW131738   2.937   7.519   6.226 -1.0914  0.0345 -0.0824
10099SOL    HW231739   2.859   7.607   6.129  0.5250  0.4320 -1.0504
10100SOL     OW31740   6.242   7.418   4.025  0.3713 -0.5556  0.2192
10100SOL    HW131741   6.164   7.470   4.008 -0.5056 -2.0127 -0.4324
10100SOL    HW231742   6.219   7.365   4.102  0.6516 -1.1094 -0.0743
10101SOL     OW31743   1.269   5.797   7.379  0.4509  0.1188 -0.7311
10101SOL    HW131744   1.360   5.770   7.365 -0.0527 -1.0149 -1.9248
10101SOL    HW231745   1.220   5.715   7.390 -0.6964  0.6335 -1.8019
10102SOL     OW31746   2.095   7.541   3.618 -0.3543  0.4570  0.5242
10102SOL    HW131747   2.004   7.570   3.630 -1.1044  0.1328 -3.0419
10102SOL    HW231748   2.090   7.446   3.618  0.0744  0.4319  0.7442
10103SOL     OW31749   2.238   2.744   6.363  0.1569 -0.2007 -0.5127
10103SOL    HW131750   2.170   2.700   6.311  0.3561  1.8922 -2.7362
10103SOL    HW231751   2.202   2.831   6.379  0.4583 -0.4816  2.3513
10104SOL     OW31752   4.274   0.282  10.172 -0.2463  0.2558  0.2649
10104SOL    HW131753   4.369   0.288  10.170 -0.2533  0.1766 -0.6200
10104SOL    HW231754   4.255   0.195  10.207 -0.0108  0.4933  1.0110
10105SOL     OW31755   2.555   4.524  10.977  0.0405 -0.1566  0.4442
10105SOL    HW131756   2.502   4.574  11.039  0.0865 -1.7033  1.8039
10105SOL    HW231757   2.628   4.582  10.956 -0.3874  0.6936  1.2122
10106SOL     OW31758   6.327   5.587   9.941  0.0298  0.2519 -0.0452
10106SOL    HW131759   6.317   5.508   9.994 -0.3033  0.0445 -0.4134
10106SOL    HW231760   6.290   5.657   9.996  2.6207  0.6356  1.3682
10107SOL     OW31761   4.926   4.962  10.893 -0.6133  0.0236 -0.1546
10107SOL    HW131762   4.929   4.918  10.809 -2.2176 -1.2056  0.3705
10107SOL    HW231763   4.991   4.917  10.947 -1.0950 -0.6346 -0.1139
10108SOL     OW31764   3.604   7.681   5.702  0.1565 -0.3235  0.1982
10108SOL    HW131765   3.644   7.598   5.675  0.0555 -0.4604  0.4630
10108SOL    HW231766   3.512   7.673   5.675  0.0804 -0.4162  0.4775
10109SOL     OW31767   4.488   1.759   7.025  0.0562 -0.2676 -0.0750
10109SOL    HW131768   4.540   1.827   6.983 -0.2381 -0.5156 -0.8617
10109SOL    HW231769   4.460   1.797   7.108 -1.2667  1.0985 -1.1023
10110SOL     OW31770   2.623   2.142  10.944 -0.3859 -0.4584 -0.1426
10110SOL    HW131771   2.668   2.161  11.026  0.9343 -2.2507 -0.3816
10110SOL    HW231772   2.608   2.227  10.903  0.4968  0.3451  1.1550
10111SOL     OW31773   6.239   6.229   7.997  0.3305  0.0528  0.0919
10111SOL    HW131774   6.281   6.143   7.985 -1.0459 -0.6692  0.2079
10111SOL    HW231775   6.263   6.255   8.086  1.6998  0.3602 -0.3333
10112SOL     OW31776   4.676   6.095  11.220  0.2359  0.0295  0.0637
10112SOL    HW131777   4.652   6.060  11.134  1.5547 -1.3889  0.2413
10112SOL    HW231778   4.771   6.100  11.218  0.1853  2.2424  0.6141
10113SOL     OW31779   7.153   2.654  11.148 -0.1301  0.7951  0.3791
10113SOL    HW131780   7.153   2.561  11.171 -0.7461  0.0358 -2.3428
10113SOL    HW231781   7.071   2.688  11.184 -0.9820 -0.2793 -0.4668
10114SOL     OW31782   7.244   2.063   0.165 -0.1254  0.1172  0.7220
10114SOL    HW131783   7.166   2.013   0.187  0.5423 -1.0994  0.3966
10114SOL    HW231784   7.211   2.150   0.141 -1.3422 -0.2919  0.8711
10115SOL     OW31785   7.136   0.902   8.894  0.1044 -0.2774  0.1736
10115SOL    HW131786   7.062   0.958   8.916  0.4182  0.2602 -0.0973
10115SOL    HW231787   7.102   0.838   8.832 -0.5308 -1.1204  1.3578
10116SOL     OW31788   7.374   1.815  12.239 -0.0903 -0.0197  0.3260
10116SOL    HW131789   7.407   1.731  12.209  0.6154  0.2214  0.3953
10116SOL    HW231790   7.426   1.834  12.317 -0.5494  0.2710  0.5639
10117SOL     OW31791   2.714   7.481   3.035 -0.3464  0.1683  0.1801
10117SOL    HW131792   2.626   7.512   3.013 -0.4922 -0.1438  0.3275
10117SOL    HW231793   2.699   7.406   3.092 -0.0204 -1.4177 -1.7189
10118SOL     OW31794   1.837   6.365   5.712  0.0306  0.3181 -0.3120
10118SOL    HW131795   1.900   6.316   5.660  0.1850 -1.6131  1.5147
10118SOL    HW231796   1.886   6.395   5.788 -0.5754  1.5140 -0.3640
10119SOL     OW31797   3.392   1.655   1.345  0.4220  0.0544  0.3370
10119SOL    HW131798   3.480   1.668   1.310  0.5907  0.2839  0.8326
10119SOL    HW231799   3.344   1.733   1.318 -0.4703 -1.3262 -2.3963
10120SOL     OW31800   2.166   4.257   2.415  0.7118  0.2420 -0.1372
10120SOL    HW131801   2.216   4.295   2.487  3.2335 -0.2824 -1.5088
10120SOL    HW231802   2.104   4.198   2.457  1.9228  0.1506  1.6015
10121SOL     OW31803   7.690   3.954  10.558  0.3889 -0.3531  0.1548
10121SOL    HW131804   7.778   3.929  10.587 -0.0861 -1.5890  0.5774
10121SOL    HW231805   7.633   3.933  10.632 -0.2617  0.5599 -0.0693
10122SOL     OW31806   2.530   1.680   0.492 -0.0963  0.1680 -0.3682
10122SOL    HW131807   2.617   1.699   0.456  1.0801 -0.9934  1.6280
10122SOL    HW231808   2.489   1.623   0.427 -0.6338  3.0129 -2.7371
10123SOL     OW31809   0.937   4.457   5.825 -0.0808 -0.6431  0.3789
10123SOL    HW131810   0.907   4.456   5.734 -2.1145  0.3992  0.9552
10123SOL    HW231811   0.940   4.365   5.851 -0.5473 -0.9006 -0.4540
10124SOL     OW31812   6.469   0.262   8.508  0.1523  0.7275 -0.4096
10124SOL    HW131813   6.381   0.286   8.480  0.6582  0.3892 -2.4850
10124SOL    HW231814   6.457   0.223   8.594 -1.7510  0.5033 -0.7278
10125SOL     OW31815   2.113   6.404  12.342 -0.3814 -0.0950  0.4128
10125SOL    HW131816   2.050   6.359  12.399  0.4697 -0.9744  0.6812
10125SOL    HW231817   2.085   6.496  12.344  0.0071  0.0369  2.8231
10126SOL     OW31818   2.216   4.837   9.155 -0.1785 -0.0831 -0.5078
10126SOL    HW131819   2.290   4.783   9.127 -0.5927 -0.3624 -1.0749
10126SOL    HW231820   2.140   4.779   9.150 -0.5771  0.4579 -0.8056
10127SOL     OW31821   5.823   6.104   2.154  0.2162 -0.4199 -0.1979
10127SOL    HW131822   5.911   6.125   2.123  0.4849 -1.6328 -0.3050
10127SOL    HW231823   5.765   6.161   2.104  0.7284 -1.5067 -2.1088
10128SOL     OW31824   3.085   6.940   9.678  0.0623  0.0872  0.2127
10128SOL    HW131825   3.090   6.924   9.772  0.2363 -0.2451  0.1513
10128SOL    HW231826   3.131   7.022   9.664 -0.1476  0.2435  0.4436
10129SOL     OW31827   4.809   0.499  11.269  0.2841 -0.3676 -0.4497
10129SOL    HW131828   4.765   0.457  11.343  0.2509  0.1224 -0.1893
10129SOL    HW231829   4.739   0.514  11.205 -0.0207  0.7670  0.1223
10130SOL     OW31830   2.089   6.237   7.496 -0.7043  0.0068 -0.0158
10130SOL    HW131831   2.122   6.148   7.488 -1.7222 -0.5123  1.2615
10130SOL    HW231832   2.152   6.291   7.448  0.6711 -1.2242  0.3601
10131SOL     OW31833   2.927   1.541   2.522  0.1177 -0.3733 -0.6625
10131SOL    HW131834   2.916   1.482   2.447  2.5747 -1.3907 -0.3019
10131SOL    HW231835   2.972   1.617   2.486  1.2647 -0.8449 -0.2768
10132SOL     OW31836   4.490   5.259   5.250 -0.0821  0.3963  0.1177
10132SOL    HW131837   4.579   5.288   5.232 -0.6871  2.9699  0.8981
10132SOL    HW231838   4.500   5.180   5.303  1.6903 -0.0675 -0.8286
10133SOL     OW31839   7.687   4.809   8.595  0.1646  0.3855 -0.4657
10133SOL    HW131840   7.697   4.802   8.690  1.3397 -1.7077 -0.6751
10133SOL    HW231841   7.672   4.719   8.566 -1.0159  1.0849 -2.2120
10134SOL     OW31842   0.553   0.887   7.889 -0.1083  0.0632 -0.1283
10134SOL    HW131843   0.495   0.917   7.959 -0.1381 -0.2553 -0.0126
10134SOL    HW231844   0.495   0.849   7.824 -0.1545  1.1801 -0.7555
10135SOL     OW31845   1.756   2.365   5.873 -0.3910  0.3743  0.1678
10135SOL    HW131846   1.748   2.347   5.779 -0.6663  0.6009  0.1449
10135SOL    HW231847   1.672   2.337   5.910  0.1613 -0.8826  0.5474
10136SOL     OW31848   7.231   1.281  12.348 -0.0694 -0.0299 -0.5204
10136SOL    HW131849   7.275   1.207  12.390  1.0014  1.8440  1.8952
10136SOL    HW231850   7.140   1.252  12.340 -0.0187 -1.1201  1.7625
10137SOL     OW31851   1.894   0.360   8.521 -0.3377 -0.0863 -0.3383
10137SOL    HW131852   1.927   0.371   8.610  0.7524  0.9348 -0.8345
10137SOL    HW231853   1.805   0.396   8.524 -0.5109 -0.5460  0.4440
10138SOL     OW31854   3.287   2.967   9.669  0.3840  0.3234 -0.2641
10138SOL    HW131855   3.288   3.037   9.605 -1.8126  0.6454 -0.0490
10138SOL    HW231856   3.288   2.886   9.618  0.1110  0.5596 -0.6438
10139SOL     OW31857   0.248   6.675   4.074 -0.3257 -0.1262  0.2458
10139SOL    HW131858   0.180   6.714   4.019 -0.3479 -0.6512 -0.1022
10139SOL    HW231859   0.301   6.749   4.103  0.5751  0.0254 -1.6663
10140SOL     OW31860   5.074   5.983   4.866  0.1201  0.2263  0.4993
10140SOL    HW131861   5.118   6.035   4.799 -1.0471  1.0350  0.3241
10140SOL    HW231862   5.051   6.046   4.934 -2.2956  0.2122 -0.2098
10141SOL     OW31863   1.022   2.030   6.280  0.2402  0.0794 -0.2084
10141SOL    HW131864   1.103   1.996   6.242  0.8412  1.4704 -0.2508
10141SOL    HW231865   1.051   2.092   6.347 -0.7806  0.7358 -0.3525
10142SOL     OW31866   6.239   5.463  11.590 -0.4043 -0.6016 -0.0215
10142SOL    HW131867   6.153   5.452  11.632 -1.8061 -2.4820 -3.0363
10142SOL    HW231868   6.272   5.373  11.581  1.2076 -0.0087 -0.2265
10143SOL     OW31869   4.852   7.793   0.678  0.0451  0.0327 -0.3987
10143SOL    HW131870   4.862   7.801   0.773  0.8487  0.8482 -0.5309
10143SOL    HW231871   4.942   7.788   0.645 -0.0403  2.6869 -1.3003
10144SOL     OW31872   1.147   3.487   9.116  0.4133 -0.3829  0.1115
10144SOL    HW131873   1.117   3.531   9.195 -1.8375 -1.8706  0.1581
10144SOL    HW231874   1.212   3.424   9.148  0.4456 -0.1185  0.5873
10145SOL     OW31875   1.003   6.532   0.426 -0.1968  0.3155 -0.3148
10145SOL    HW131876   1.007   6.483   0.508 -2.0215  1.6928  0.6436
10145SOL    HW231877   0.951   6.609   0.446  0.9660  1.6933 -2.2886
10146SOL     OW31878   3.969   6.615   8.720 -0.6758  0.3251  0.2454
10146SOL    HW131879   3.932   6.687   8.771 -0.8002  0.8468 -0.5654
10146SOL    HW231880   4.030   6.572   8.781 -2.5252 -0.5364  1.5969
10147SOL     OW31881   3.201   6.840   0.767  0.8102 -0.2551 -0.0650
10147SOL    HW131882   3.216   6.750   0.736  0.9313 -0.4304  0.4897
10147SOL    HW231883   3.226   6.895   0.693  1.0851 -0.6673 -0.2856
10148SOL     OW31884   1.741   2.148  11.768  0.2463 -0.5621 -0.3688
10148SOL    HW131885   1.772   2.224  11.817  1.1025  1.1647 -3.2984
10148SOL    HW231886   1.647   2.164  11.757 -0.0303 -1.1626  0.9506
10149SOL     OW31887   6.381   0.643   8.975 -0.0548 -0.2896 -0.2997
10149SOL    HW131888   6.296   0.608   8.950 -0.0386  0.0052 -0.7769
10149SOL    HW231889   6.412   0.690   8.898  1.2398 -1.6692 -0.6807
10150SOL     OW31890   6.134   0.956   3.483  0.4566  0.1426  0.5418
10150SOL    HW131891   6.081   0.876   3.478 -2.9251  2.1712  0.3244
10150SOL    HW231892   6.182   0.948   3.565  0.5554 -2.2451  0.3215
10151SOL     OW31893   0.213   0.254   0.950 -0.3064 -0.0424 -0.1413
10151SOL    HW131894   0.283   0.293   1.003  1.4188 -2.7997 -0.2209
10151SOL    HW231895   0.155   0.213   1.014 -0.7421  0.4556 -0.2024
10152SOL     OW31896   5.063   2.250   1.469  0.0761  0.5854 -0.9370
10152SOL    HW131897   5.114   2.220   1.394  3.7192 -2.2342  2.2539
10152SOL    HW231898   5.115   2.320   1.507 -1.7864  2.0643 -0.9509
10153SOL     OW31899   3.693   5.973   5.096 -0.1585 -0.1593 -0.2974
10153SOL    HW131900   3.748   5.926   5.159  0.8358  0.8124 -0.4070
10153SOL    HW231901   3.630   6.021   5.151  0.0104 -0.1654 -0.0969
10154SOL     OW31902   1.004   4.644   8.052  0.3243  0.2169  0.1082
10154SOL    HW131903   1.060   4.720   8.065 -1.6063  1.7284  0.1354
10154SOL    HW231904   0.915   4.680   8.044 -0.8477 -2.1258  1.2924
10155SOL     OW31905   2.439   7.295   9.005  0.5912 -0.3597 -0.2770
10155SOL    HW131906   2.416   7.323   9.093  3.4785 -1.2427  0.8769
10155SOL    HW231907   2.503   7.360   8.975 -2.0761  1.3745 -2.8663
10156SOL     OW31908   5.580   5.572   8.185 -0.9065 -0.3973  0.1040
10156SOL    HW131909   5.666   5.562   8.226 -0.3522  1.2106 -0.6053
10156SOL    HW231910   5.564   5.488   8.142  0.0920 -0.8821  0.6401
10157SOL     OW31911   4.601   3.047   9.707  0.3127 -0.4839 -0.5138
10157SOL    HW131912   4.538   3.012   9.769  1.2487 -0.6880  0.3486
10157SOL    HW231913   4.627   3.132   9.743  0.2421 -0.2229 -1.0648
10158SOL     OW31914   3.316   0.309   7.261 -0.1911  0.1203 -1.0654
10158SOL    HW131915   3.298   0.216   7.273 -0.0893  0.2648  0.3533
10158SOL    HW231916   3.232   0.347   7.238 -1.5657  0.4719  3.5574
10159SOL     OW31917   5.610   2.070   5.438  0.0827 -0.8784  0.1672
10159SOL    HW131918   5.653   2.100   5.517 -0.0089 -0.5930  0.1090
10159SOL    HW231919   5.628   1.976   5.435 -0.4461 -1.0094  0.8560
10160SOL     OW31920   7.438   7.123   9.622  0.1761  0.3187 -0.1399
10160SOL    HW131921   7.353   7.119   9.577 -0.4699  0.9527  0.9733
10160SOL    HW231922   7.423   7.183   9.696  1.3773 -0.1955  0.5457
10161SOL     OW31923   1.075   7.397  10.706 -0.2983 -0.4515  0.2585
10161SOL    HW131924   1.007   7.452  10.747  0.3122  0.7649 -0.3053
10161SOL    HW231925   1.116   7.352  10.780 -0.5335  0.1853  0.7954
10162SOL     OW31926   2.517   5.437  10.365  0.0597  0.6865 -0.4591
10162SOL    HW131927   2.423   5.425  10.349  0.0951 -0.7893  0.3447
10162SOL    HW231928   2.560   5.403  10.287 -0.0106 -0.8965  0.1503
10163SOL     OW31929   4.582   6.906   5.215  0.2574 -0.3578 -0.4384
10163SOL    HW131930   4.550   6.923   5.304  1.7476 -0.0975  0.0682
10163SOL    HW231931   4.657   6.848   5.227  1.4695  0.9494 -1.3656
10164SOL     OW31932   6.565   2.832   5.598  0.5019  0.1602 -0.5550
10164SOL    HW131933   6.497   2.781   5.554  0.2569 -0.0394  0.0523
10164SOL    HW231934   6.518   2.888   5.660  0.9531 -0.7344  0.6257
10165SOL     OW31935   5.492   3.518   8.617  0.1884  0.4113  0.3189
10165SOL    HW131936   5.435   3.534   8.693 -1.1346 -0.0228 -0.5452
10165SOL    HW231937   5.547   3.444   8.643  1.7565  2.0268  1.8822
10166SOL     OW31938   6.482   3.788   7.264 -0.4005 -0.0791 -0.5456
10166SOL    HW131939   6.420   3.745   7.322  0.8865  1.0341  1.8168
10166SOL    HW231940   6.559   3.730   7.264  0.5833  1.1487  1.0495
10167SOL     OW31941   3.298   2.950   4.054  0.0284  0.4530  0.5447
10167SOL    HW131942   3.313   2.911   3.968 -0.9670  0.4726  0.3393
10167SOL    HW231943   3.385   2.974   4.086  0.3838  0.7748 -0.6179
10168SOL     OW31944   0.159   7.684   2.429  0.1478 -0.1846  0.6704
10168SOL    HW131945   0.163   7.590   2.411  0.3674 -0.3522  1.5388
10168SOL    HW231946   0.116   7.690   2.514  1.3077  0.4178  1.2362
10169SOL     OW31947   5.472   6.714   0.787 -0.8629  0.0570  0.4773
10169SOL    HW131948   5.442   6.769   0.715  2.6288  0.2207 -1.0672
10169SOL    HW231949   5.555   6.754   0.815 -1.9881 -0.0242  4.6673
10170SOL     OW31950   7.597   2.829  11.190  0.2577 -0.3431 -0.2331
10170SOL    HW131951   7.655   2.845  11.115  1.0988 -3.5342 -0.4032
10170SOL    HW231952   7.605   2.909  11.243  1.4924  1.0475 -2.3375
10171SOL     OW31953   3.039   2.822   3.051  0.2769  0.2159  0.0100
10171SOL    HW131954   2.984   2.860   3.119  0.1422 -0.6431  0.3907
10171SOL    HW231955   2.984   2.757   3.009  0.9644 -0.5837  0.3296
10172SOL     OW31956   1.176   0.608   0.434  0.4119 -0.2771  0.7324
10172SOL    HW131957   1.199   0.572   0.520 -1.1553 -1.5644  0.6803
10172SOL    HW231958   1.130   0.536   0.391  0.4897  0.6161 -0.8910
10173SOL     OW31959   0.802   3.705   3.059 -0.3973 -0.1060 -0.0085
10173SOL    HW131960   0.716   3.684   3.023  0.3984 -0.0763 -2.0837
10173SOL    HW231961   0.840   3.620   3.081 -1.2616 -0.0751  1.8426
10174SOL     OW31962   2.680   4.771   2.708  0.1806 -0.4612 -0.1816
10174SOL    HW131963   2.740   4.826   2.658  1.0061  0.6142  1.8694
10174SOL    HW231964   2.670   4.691   2.655  2.5375 -0.2089 -1.0992
10175SOL     OW31965   3.933   5.528   3.675  0.0451 -0.0488  0.1629
10175SOL    HW131966   3.871   5.586   3.629  1.3193  0.6561 -0.7067
10175SOL    HW231967   3.947   5.455   3.615  0.0325 -0.2220  0.3713
10176SOL     OW31968   3.835   3.528   2.453 -0.3874  0.0517 -0.0466
10176SOL    HW131969   3.768   3.541   2.386 -1.0390 -2.3897  0.0121
10176SOL    HW231970   3.898   3.467   2.413 -0.7807 -1.4537  1.4697
10177SOL     OW31971   7.217   2.879   3.905  0.3621  0.7759  0.2210
10177SOL    HW131972   7.284   2.936   3.944  0.4424  0.1286  1.0612
10177SOL    HW231973   7.161   2.939   3.855  2.9348  1.0701 -2.5925
10178SOL     OW31974   3.066   1.477  10.649  0.1296  0.1257 -0.4216
10178SOL    HW131975   3.111   1.393  10.646  1.0089  0.5734 -0.1371
10178SOL    HW231976   3.123   1.536  10.600  0.2464  0.8899  0.6069
10179SOL     OW31977   6.302   6.672   8.780 -0.4584 -0.3343  0.2744
10179SOL    HW131978   6.266   6.592   8.741  0.3688 -0.5362 -0.0950
10179SOL    HW231979   6.313   6.650   8.873 -0.4970 -0.5628  0.2265
10180SOL     OW31980   3.774   5.563   4.529  0.3679 -0.1634 -0.3328
10180SOL    HW131981   3.713   5.620   4.482  0.9089  0.3451 -0.4367
10180SOL    HW231982   3.847   5.621   4.552  0.0623 -0.3528  1.2686
10181SOL     OW31983   1.598   5.102  10.766 -0.1124  0.0930  0.1257
10181SOL    HW131984   1.682   5.081  10.806 -1.1191 -1.9711  1.3074
10181SOL    HW231985   1.595   5.050  10.686 -0.5673 -0.4755  0.5008
10182SOL     OW31986   0.095   6.327   1.923  0.5083  0.3283 -0.0508
10182SOL    HW131987   0.025   6.365   1.977  0.9753  0.4037  0.5163
10182SOL    HW231988   0.058   6.246   1.888 -0.3613  1.0979 -0.9414
10183SOL     OW31989   2.597   3.166   9.846 -0.3113  0.0902 -0.0646
10183SOL    HW131990   2.504   3.157   9.826  0.2137  0.8030 -3.4297
10183SOL    HW231991   2.615   3.260   9.838  0.4652  0.1444  1.9080
10184SOL     OW31992   0.323   6.928  11.508  0.3706  0.0266 -0.3709
10184SOL    HW131993   0.383   6.949  11.437 -1.4600 -0.1749 -2.0736
10184SOL    HW231994   0.261   6.866  11.469 -0.4181 -0.4729  1.5593
10185SOL     OW31995   5.520   7.193   0.767  0.0609  0.2969  0.6651
10185SOL    HW131996   5.592   7.142   0.805 -0.8901 -1.4826  0.1952
10185SOL    HW231997   5.444   7.170   0.822 -0.6773  0.0728 -0.4270
10186SOL     OW31998   7.548   1.382   2.887  0.5603  0.9506  0.4593
10186SOL    HW131999   7.523   1.400   2.977  1.8472  0.1302  1.0052
10186SOL    HW232000   7.471   1.340   2.849 -0.1369  1.6715  1.0476
10187SOL     OW32001   5.434   3.924   1.859  0.2813 -0.0287  0.2975
10187SOL    HW132002   5.431   3.829   1.866  1.1697  0.0179  1.8864
10187SOL    HW232003   5.523   3.947   1.887  0.3137  1.2177 -0.7499
10188SOL     OW32004   5.547   2.536   8.922 -0.3827 -0.2392 -0.0027
10188SOL    HW132005   5.584   2.620   8.950 -0.5246  0.2916 -1.3597
10188SOL    HW232006   5.454   2.542   8.946 -0.4319  0.0675 -0.2666
10189SOL     OW32007   4.881   6.721  12.372  0.0787  0.2657  0.3612
10189SOL    HW132008   4.963   6.766  12.352 -0.0534 -0.3105 -1.7457
10189SOL    HW232009   4.907   6.631  12.389 -0.1033  0.0448 -0.4769
10190SOL     OW32010   2.456   0.503  11.227 -0.3851 -0.1752  0.2382
10190SOL    HW132011   2.539   0.520  11.183 -0.0184 -0.3315  0.8611
10190SOL    HW232012   2.451   0.408  11.234 -1.0948 -0.2189 -0.6884
10191SOL     OW32013   7.474   4.358   8.267  0.3646  0.8017  0.2648
10191SOL    HW132014   7.427   4.441   8.255  0.5298  0.9497  0.6300
10191SOL    HW232015   7.508   4.337   8.179  0.7188  1.3685  0.2591
10192SOL     OW32016   0.894   0.912   0.098  0.4798  0.4736 -0.0079
10192SOL    HW132017   0.854   0.921   0.012  0.4892 -0.0844 -0.0729
10192SOL    HW232018   0.892   1.000   0.135  0.8807  0.8067 -0.7582
10193SOL     OW32019   6.183   6.511  10.222 -0.4129 -0.6015  0.2773
10193SOL    HW132020   6.115   6.482  10.162  2.2507 -0.8894 -2.9180
10193SOL    HW232021   6.239   6.434  10.234  0.5442  0.1701  0.9582
10194SOL     OW32022   7.751   0.232  11.088 -0.0556  0.4218  0.5793
10194SOL    HW132023   7.725   0.153  11.134  0.5509  0.3251  0.7626
10194SOL    HW232024   7.694   0.300  11.122  1.2402  0.6409  2.4702
10195SOL     OW32025   1.251   7.385  11.358 -0.3496 -0.2207  0.5870
10195SOL    HW132026   1.289   7.297  11.356  1.5064  0.5261  1.1961
10195SOL    HW232027   1.220   7.400  11.268 -0.6157 -1.4371  0.4636
10196SOL     OW32028   5.375   6.144   8.208 -0.4102 -0.3471  0.2810
10196SOL    HW132029   5.411   6.230   8.185  1.5053 -1.1125  0.2638
10196SOL    HW232030   5.352   6.152   8.301  0.1954  0.0410  0.3997
10197SOL     OW32031   7.152   4.749   0.618  0.0593 -0.0792  0.3237
10197SOL    HW132032   7.141   4.797   0.535  2.0579 -0.4225 -0.1760
10197SOL    HW232033   7.206   4.807   0.672  1.7164 -1.3238  0.0569
10198SOL     OW32034   1.695   7.612   9.562  0.2302  0.2246  0.1204
10198SOL    HW132035   1.644   7.579   9.636 -0.5029  1.2564  0.0955
10198SOL    HW232036   1.784   7.580   9.578  0.2332  0.9907  1.8184
10199SOL     OW32037   5.333   1.993   4.282 -0.4116 -0.3841  0.2346
10199SOL    HW132038   5.306   2.070   4.232  0.2202 -0.4392 -0.2108
10199SOL    HW232039   5.273   1.924   4.254 -1.7653  0.2133  1.5307
10200SOL     OW32040   1.871   5.521   6.817 -0.0007 -0.0418 -0.3174
10200SOL    HW132041   1.945   5.460   6.822  0.5529  0.6941  1.1639
10200SOL    HW232042   1.814   5.496   6.889 -0.2734  0.5686 -0.3151
10201SOL     OW32043   2.148   2.805  12.383 -0.0299  0.0005 -0.2206
10201SOL    HW132044   2.240   2.781  12.379 -0.0982 -0.5053  1.0217
10201SOL    HW232045   2.101   2.724  12.363 -0.2118 -0.1839  0.8801
10202SOL     OW32046   0.325   5.962   4.638 -0.1877  0.7222 -0.7930
10202SOL    HW132047   0.291   5.878   4.606 -0.4225  0.3850  0.2835
10202SOL    HW232048   0.395   5.984   4.577 -0.1833 -0.2205 -1.1513
10203SOL     OW32049   7.745   7.086   8.653  0.5700 -0.2125 -0.2043
10203SOL    HW132050   7.721   7.031   8.728 -0.3062 -1.6250 -1.4573
10203SOL    HW232051   7.664   7.131   8.629  0.2336 -1.4655 -1.6110
10204SOL     OW32052   6.244   0.569   0.385  0.6555  0.1466 -0.3397
10204SOL    HW132053   6.271   0.483   0.353  0.3575  0.5283 -1.7252
10204SOL    HW232054   6.250   0.626   0.308 -0.9738  0.9381  0.0728
10205SOL     OW32055   4.417   0.075   7.400  0.4157 -0.3716 -0.3994
10205SOL    HW132056   4.407   0.015   7.474  0.3044 -0.1769 -0.2549
10205SOL    HW232057   4.511   0.089   7.392  0.3660  0.5947  0.5075
10206SOL     OW32058   2.588   6.037  12.177 -0.2792 -0.3884 -0.3823
10206SOL    HW132059   2.556   6.041  12.087 -1.8129 -1.0352  0.1107
10206SOL    HW232060   2.531   6.097  12.226  0.5640 -0.0121  0.1668
10207SOL     OW32061   4.282   2.820   1.798 -0.7567 -0.2238 -0.2164
10207SOL    HW132062   4.264   2.761   1.871  1.3380  1.1487  1.5465
10207SOL    HW232063   4.347   2.774   1.745  1.5025  0.6741  1.6052
10208SOL     OW32064   1.238   1.555   2.693  0.0245  0.2270  0.1802
10208SOL    HW132065   1.265   1.647   2.692  1.1177 -0.0818  0.0671
10208SOL    HW232066   1.241   1.529   2.785  2.9761 -0.5775 -0.0393
10209SOL     OW32067   1.768   4.533   2.035 -0.5371  0.2228  0.1702
10209SOL    HW132068   1.806   4.497   2.115 -0.7389 -0.1121  0.1194
10209SOL    HW232069   1.843   4.546   1.976 -0.4687 -0.1968  0.1596
10210SOL     OW32070   7.300   4.949   2.709  0.1759  0.2329 -0.0106
10210SOL    HW132071   7.347   4.918   2.786  0.6151  1.6158  0.3010
10210SOL    HW232072   7.359   4.931   2.636 -0.7443 -2.2079 -0.2329
10211SOL     OW32073   5.027   4.617   4.445  0.0234  0.1596 -0.0521
10211SOL    HW132074   5.036   4.583   4.356  1.0148 -0.5866  0.3161
10211SOL    HW232075   4.934   4.609   4.464 -0.3372  1.1113 -1.3192
10212SOL     OW32076   6.918   5.910  10.914 -0.2129  0.2710  0.3124
10212SOL    HW132077   6.862   5.832  10.913 -1.4361  1.0882 -1.5756
10212SOL    HW232078   6.869   5.973  10.967  0.0653  0.2234  0.6243
10213SOL     OW32079   5.568   6.142   4.622 -0.3362 -0.2201 -1.1019
10213SOL    HW132080   5.541   6.227   4.589 -1.5129  0.5857  1.6366
10213SOL    HW232081   5.486   6.096   4.642  0.2218 -0.3065  1.2895
10214SOL     OW32082   4.618   7.309   5.474  0.3683 -0.6099 -0.3809
10214SOL    HW132083   4.586   7.264   5.552  0.2744 -2.9066 -1.6586
10214SOL    HW232084   4.548   7.298   5.409 -0.1005  2.3269 -0.4992
10215SOL     OW32085   0.561   7.913  11.213  0.3592 -0.4918 -0.9429
10215SOL    HW132086   0.528   7.826  11.189  0.4177 -0.7781 -0.0128
10215SOL    HW232087   0.483   7.968  11.218 -0.0736 -1.1977  1.3763
10216SOL     OW32088   7.500   2.525  12.136  0.1640  0.2382  0.1229
10216SOL    HW132089   7.463   2.452  12.086 -1.5584  0.4883  0.9317
10216SOL    HW232090   7.589   2.534  12.104 -0.0983 -1.1942 -1.1193
10217SOL     OW32091   2.254   0.472   6.846 -0.0564 -0.0219  0.0420
10217SOL    HW132092   2.176   0.452   6.899 -0.0500  0.5731  0.2781
10217SOL    HW232093   2.218   0.496   6.760 -0.1241  0.0435  0.0879
10218SOL     OW32094   4.600   4.865   9.763 -0.3357  0.0678  0.4860
10218SOL    HW132095   4.590   4.791   9.703  1.5693 -0.7826  1.1141
10218SOL    HW232096   4.600   4.824   9.850 -0.2698  0.9431  0.9059
10219SOL     OW32097   0.194   6.720   3.286 -0.3724 -0.2524  0.8529
10219SOL    HW132098   0.196   6.776   3.363  0.7308 -1.6701  1.9208
10219SOL    HW232099   0.268   6.660   3.298  2.4157  1.8869 -3.2366
10220SOL     OW32100   4.795   0.543  11.977 -0.4250 -0.6386 -0.5134
10220SOL    HW132101   4.785   0.457  12.019 -1.3187  0.0402  0.7342
10220SOL    HW232102   4.890   0.556  11.972 -0.1961 -2.3972 -2.2924
10221SOL     OW32103   0.313   2.737  10.800  0.0207 -0.4491 -0.0801
10221SOL    HW132104   0.247   2.801  10.826 -0.3310 -0.9621  0.3207
10221SOL    HW232105   0.308   2.735  10.705 -1.3154 -1.2577 -0.0261
10222SOL     OW32106   1.196   4.425   3.068  0.6372  0.5198 -0.3081
10222SOL    HW132107   1.219   4.390   2.982 -1.0193  0.4112 -0.7419
10222SOL    HW232108   1.226   4.516   3.066  0.3231  0.6198 -1.1446
10223SOL     OW32109   7.385   7.795   8.358  0.1837 -0.2487 -0.0920
10223SOL    HW132110   7.422   7.879   8.388 -0.1806 -0.3631  0.7057
10223SOL    HW232111   7.341   7.759   8.436  2.0659 -2.1469  0.1935
10224SOL     OW32112   0.023   3.098   7.467 -0.3339  0.4042  0.6691
10224SOL    HW132113   0.013   3.024   7.407 -0.9547  0.2562  0.9398
10224SOL    HW232114   0.030   3.058   7.554 -3.0814  0.6637  1.1250
10225SOL     OW32115   7.110   0.114   8.242  0.0292 -0.7614  0.0479
10225SOL    HW132116   7.097   0.048   8.311  0.4561 -0.2737  0.6127
10225SOL    HW232117   7.199   0.146   8.257 -0.0768 -0.2564 -0.3891
10226SOL     OW32118   0.950   3.661   7.102 -0.0964  0.3152  0.2534
10226SOL    HW132119   0.884   3.729   7.091  2.0214  2.4173 -0.2160
10226SOL    HW232120   0.964   3.626   7.014  0.0016  0.4398  0.2201
10227SOL     OW32121   5.761   3.636   6.086  0.2245 -0.0634 -0.0893
10227SOL    HW132122   5.718   3.687   6.155 -0.3805  0.3624 -0.7651
10227SOL    HW232123   5.776   3.699   6.016  1.8529 -0.2351  0.0694
10228SOL     OW32124   0.573   6.229   3.595  0.3593 -0.1339  0.0336
10228SOL    HW132125   0.557   6.137   3.615 -1.9616  0.1968  0.0443
10228SOL    HW232126   0.499   6.275   3.635  1.2814  1.7007 -0.2653
10229SOL     OW32127   6.640   1.457   6.798  0.0691  0.3179 -0.5209
10229SOL    HW132128   6.547   1.435   6.797  0.3095 -0.8225  0.4234
10229SOL    HW232129   6.642   1.550   6.774 -1.0838 -0.2674 -3.1990
10230SOL     OW32130   2.907   2.482   7.200  0.5708  0.3852  0.0791
10230SOL    HW132131   2.925   2.451   7.289  0.9982  0.3234 -0.0288
10230SOL    HW232132   2.830   2.538   7.210  1.0966  1.0264  0.6098
10231SOL     OW32133   6.213   3.044   2.640 -0.6194  0.7646  0.2014
10231SOL    HW132134   6.283   3.074   2.582 -1.6338  0.1907 -1.3862
10231SOL    HW232135   6.141   3.105   2.625 -2.1893 -1.3968 -1.9973
10232SOL     OW32136   0.111   3.121   6.413  0.4724  0.2352  0.6228
10232SOL    HW132137   0.176   3.089   6.475 -0.1289 -1.8356  0.2536
10232SOL    HW232138   0.083   3.044   6.365 -1.9830  1.1122  0.4963
10233SOL     OW32139   1.049   5.998  10.783  0.2907  0.8428  0.1747
10233SOL    HW132140   1.006   5.917  10.755 -2.0532  1.7505  0.9733
10233SOL    HW232141   1.101   5.972  10.859 -0.3370  0.0478  0.3462
10234SOL     OW32142   5.970   6.221   5.431  0.0550 -0.0554 -0.0322
10234SOL    HW132143   5.924   6.214   5.514 -1.5483 -2.0572 -0.9731
10234SOL    HW232144   5.948   6.308   5.398 -1.5228 -0.2513  0.4284
10235SOL     OW32145   1.825   0.859  12.059 -0.5911  0.0776 -0.0751
10235SOL    HW132146   1.857   0.791  11.999  0.1929 -2.3648  2.8742
10235SOL    HW232147   1.904   0.889  12.105 -1.0877  2.3051 -0.5669
10236SOL     OW32148   1.379   6.103   1.152  0.2135 -0.1062  0.3250
10236SOL    HW132149   1.467   6.071   1.172  0.5319 -0.5913 -1.7155
10236SOL    HW232150   1.321   6.039   1.191  0.8127 -1.1828 -0.4932
10237SOL     OW32151   3.821   7.482   0.276  0.0923 -0.2525 -0.1261
10237SOL    HW132152   3.813   7.564   0.227  0.3036 -0.2185 -0.1049
10237SOL    HW232153   3.915   7.466   0.281  0.0112 -1.4721 -1.7176
10238SOL     OW32154   2.792   6.874   7.472 -0.1287  0.4183 -0.1075
10238SOL    HW132155   2.881   6.866   7.438 -0.3427  1.3494 -0.9232
10238SOL    HW232156   2.749   6.793   7.445 -0.9605  1.9878 -4.1638
10239SOL     OW32157   5.044   3.553   9.874  0.4464  0.5924 -0.3208
10239SOL    HW132158   5.079   3.638   9.900  0.4904  0.2891  0.6357
10239SOL    HW232159   5.026   3.508   9.956 -0.5655  0.0735 -0.8055
10240SOL     OW32160   7.070   0.021   2.489 -0.0341  0.3260  0.0120
10240SOL    HW132161   7.035  -0.055   2.534 -0.4923  0.8264  0.5120
10240SOL    HW232162   7.056   0.002   2.396 -1.6558  0.5124  0.1858
10241SOL     OW32163   1.186   7.152   0.136  0.1906  0.3461 -0.1755
10241SOL    HW132164   1.278   7.177   0.144  0.9189 -2.4006  0.8876
10241SOL    HW232165   1.142   7.233   0.109  2.8147  1.8476 -0.2816
10242SOL     OW32166   6.364   0.178   8.144  0.3186 -0.2554 -0.0341
10242SOL    HW132167   6.306   0.222   8.206 -1.5578  0.5519 -2.1802
10242SOL    HW232168   6.427   0.131   8.198 -1.3917  0.1090  2.4321
10243SOL     OW32169   2.034   7.208   3.201 -0.8252 -0.1768  0.0099
10243SOL    HW132170   1.957   7.179   3.152 -1.0010  0.1037  0.1154
10243SOL    HW232171   2.080   7.127   3.224 -2.2186 -0.5304  1.8103
10244SOL     OW32172   3.700   5.407  12.030 -0.1213  0.4603  0.1138
10244SOL    HW132173   3.679   5.323  11.990 -0.1941  0.9797 -0.9633
10244SOL    HW232174   3.620   5.432  12.077 -1.2335  1.3587 -2.1115
10245SOL     OW32175   5.538   7.683   7.573 -0.0245  0.3145  0.1638
10245SOL    HW132176   5.446   7.675   7.548  0.0400 -2.1140  0.3808
10245SOL    HW232177   5.583   7.618   7.519  1.6413  1.7332 -0.2124
10246SOL     OW32178   5.750   7.025   6.150 -0.1813 -0.1894  0.1418
10246SOL    HW132179   5.663   6.993   6.177 -0.0585  0.4692  1.3841
10246SOL    HW232180   5.733   7.077   6.072 -0.7997 -0.6650 -0.0568
10247SOL     OW32181   4.237   0.096   4.946  0.2798  0.8209  0.0576
10247SOL    HW132182   4.172   0.121   4.881  1.6513  0.0031 -1.7099
10247SOL    HW232183   4.200   0.019   4.989 -0.3338  0.9564 -0.2179
10248SOL     OW32184   7.375   7.326   2.632  0.7663  0.5682  0.8357
10248SOL    HW132185   7.380   7.232   2.652  0.3472  0.1036 -1.0886
10248SOL    HW232186   7.345   7.366   2.714  4.8983 -0.3502  3.1040
10249SOL     OW32187   0.623   6.202   8.219 -0.0575 -0.2634  0.2762
10249SOL    HW132188   0.647   6.153   8.141 -1.4922 -0.0604 -0.3038
10249SOL    HW232189   0.529   6.189   8.229 -0.1568  0.9040  1.1408
10250SOL     OW32190   2.140   3.722   1.494 -0.7009  0.3337  0.0638
10250SOL    HW132191   2.079   3.681   1.433 -1.1055  0.1410  0.5950
10250SOL    HW232192   2.147   3.660   1.567  3.3903 -1.7853 -1.7748
10251SOL     OW32193   4.834   3.147   7.812 -0.3686  0.3604 -0.1020
10251SOL    HW132194   4.854   3.210   7.743  0.1942  2.2307  1.6797
10251SOL    HW232195   4.812   3.200   7.888 -1.3373 -1.6295  1.0994
10252SOL     OW32196   0.152   2.152   1.231 -0.4769  0.0889 -0.0871
10252SOL    HW132197   0.106   2.236   1.236 -0.5328 -0.0126  2.4585
10252SOL    HW232198   0.093   2.090   1.275  1.4016 -0.3208  2.0328
10253SOL     OW32199   4.987   4.065   8.403  0.0769  0.7262  0.2996
10253SOL    HW132200   4.964   4.121   8.477 -0.1886 -3.8280  4.1512
10253SOL    HW232201   5.082   4.055   8.409 -0.0965 -0.7434  1.0235
10254SOL     OW32202   3.122   6.608   6.847 -0.2115  0.2395  0.6706
10254SOL    HW132203   3.035   6.634   6.878 -0.2472  0.1717  0.6274
10254SOL    HW232204   3.126   6.639   6.757  0.1751  1.0972  0.9774
10255SOL     OW32205   0.856   4.199   4.402 -0.5793 -0.1727  0.3626
10255SOL    HW132206   0.817   4.166   4.322 -0.1001  0.8043 -0.2933
10255SOL    HW232207   0.857   4.294   4.391 -0.5848 -0.0075  1.5636
10256SOL     OW32208   5.459   3.595   6.605  0.1249  0.2397 -0.3419
10256SOL    HW132209   5.532   3.533   6.596  1.3402  1.7352 -1.1337
10256SOL    HW232210   5.398   3.570   6.536  0.1458 -0.6255 -0.0679
10257SOL     OW32211   0.072   0.192   2.054 -0.2135  0.7228 -0.4584
10257SOL    HW132212   0.076   0.179   2.149 -0.9345  0.8062 -0.4150
10257SOL    HW232213   0.154   0.238   2.033  0.1905  0.2384  0.0438
10258SOL     OW32214   5.895   2.714  10.236  0.0988  0.4393 -0.1152
10258SOL    HW132215   5.824   2.778  10.226 -1.0446 -0.8512 -0.4843
10258SOL    HW232216   5.863   2.636  10.192  1.6181 -0.2977  0.0363
10259SOL     OW32217   5.904   6.231   0.514 -0.2895 -0.3424  0.2082
10259SOL    HW132218   5.979   6.289   0.528  0.3981 -1.2780  0.5276
10259SOL    HW232219   5.889   6.234   0.420  1.2970 -1.4995 -0.1182
10260SOL     OW32220   6.602   6.566   5.862  0.3180  0.0128 -0.0674
10260SOL    HW132221   6.519   6.577   5.815  1.1366  1.9725 -1.1669
10260SOL    HW232222   6.616   6.471   5.864 -1.2254 -0.2721 -1.1512
10261SOL     OW32223   6.373   1.186   3.092  0.6541  0.1250  0.1168
10261SOL    HW132224   6.382   1.127   3.167  0.1598  0.6867  0.6271
10261SOL    HW232225   6.306   1.249   3.119 -1.6593 -1.3401 -1.8623
10262SOL     OW32226   5.798   2.116   6.237  0.8073 -0.2648 -0.5807
10262SOL    HW132227   5.740   2.062   6.291 -1.3236  0.8923 -1.5910
10262SOL    HW232228   5.858   2.156   6.299 -2.0989  1.7124  1.2202
10263SOL     OW32229   0.618   1.298   7.289 -0.3601  0.5195  0.5397
10263SOL    HW132230   0.616   1.211   7.248  1.0803 -0.3191  2.1059
10263SOL    HW232231   0.530   1.311   7.322 -0.7062 -0.1525 -0.0981
10264SOL     OW32232   4.212   6.505   8.872 -0.1187 -0.6150 -0.1046
10264SOL    HW132233   4.203   6.585   8.923  0.9433  0.1274 -1.0572
10264SOL    HW232234   4.268   6.449   8.926  1.6168  0.4516 -0.7186
10265SOL     OW32235   4.618   1.311   7.144 -0.4255  0.1592  0.5090
10265SOL    HW132236   4.577   1.366   7.077 -1.1710  0.6966  1.3857
10265SOL    HW232237   4.624   1.224   7.103  0.2553  0.7571 -0.6874
10266SOL     OW32238   6.067   3.744  10.658 -0.4913 -0.3564 -0.7039
10266SOL    HW132239   6.111   3.679  10.713  1.9219  1.4359 -0.3853
10266SOL    HW232240   6.093   3.721  10.568  0.8914  0.4895 -0.5428
10267SOL     OW32241   1.215   7.794   8.395 -0.0916 -0.5676 -0.4649
10267SOL    HW132242   1.295   7.745   8.379  1.3503  1.5759 -0.3313
10267SOL    HW232243   1.203   7.848   8.317 -0.0103  0.8616  0.4551
10268SOL     OW32244   3.421   6.989   9.848  0.1384 -0.1390 -0.3396
10268SOL    HW132245   3.440   7.074   9.885  0.1112 -1.2570  2.4634
10268SOL    HW232246   3.507   6.953   9.824  0.2277  0.2918 -0.6719
10269SOL     OW32247   3.369   6.882   2.883 -0.3393  0.1298  0.4059
10269SOL    HW132248   3.437   6.940   2.918 -0.7519  1.5441 -1.0423
10269SOL    HW232249   3.287   6.925   2.904 -0.6591  0.0534 -0.6238
10270SOL     OW32250   5.096   1.684  10.414 -0.1470  0.1405  0.1836
10270SOL    HW132251   5.161   1.627  10.455  0.7207  0.0513 -1.2512
10270SOL    HW232252   5.048   1.625  10.355  0.3830  0.7584 -0.8919
10271SOL     OW32253   5.884   6.854   9.576  0.3275  0.7899  0.5004
10271SOL    HW132254   5.789   6.856   9.576  0.2683  1.8915 -2.1216
10271SOL    HW232255   5.910   6.921   9.638 -0.5759  0.4482  1.2760
10272SOL     OW32256   5.133   5.643  10.407 -0.6825  0.2986  0.2838
10272SOL    HW132257   5.165   5.555  10.385 -0.8733  0.0385  1.0156
10272SOL    HW232258   5.066   5.661  10.341 -1.6003 -0.6682  0.9234
10273SOL     OW32259   0.178   6.996   2.270 -0.2035  0.6934  0.4648
10273SOL    HW132260   0.149   7.071   2.219 -1.1443 -0.5924 -0.9531
10273SOL    HW232261   0.267   6.979   2.239 -0.9863 -0.4618 -1.2658
10274SOL     OW32262   3.006   3.363   7.786  1.2399  0.0862  0.0476
10274SOL    HW132263   3.100   3.358   7.768  1.4261  0.1370  0.9964
10274SOL    HW232264   2.985   3.456   7.779  1.1903  0.0399 -0.4766
10275SOL     OW32265   6.533   4.543   6.235 -0.4771 -0.1309  0.0362
10275SOL    HW132266   6.626   4.561   6.224 -0.8575  1.5070 -0.9502
10275SOL    HW232267   6.490   4.623   6.205 -2.1482 -0.1296  2.1933
10276SOL     OW32268   3.620   7.591   4.492  0.0779  0.6509  0.0142
10276SOL    HW132269   3.697   7.536   4.505  0.5834  0.6870 -2.3305
10276SOL    HW232270   3.550   7.531   4.467  0.5950  0.9492 -2.4106
10277SOL     OW32271   7.699   6.254   2.608 -0.5614 -0.3657  0.0912
10277SOL    HW132272   7.708   6.159   2.607 -1.1223 -0.4266 -1.2099
10277SOL    HW232273   7.606   6.269   2.625 -0.5966 -0.0660 -0.3509
10278SOL     OW32274   0.888   6.988   7.191  0.6990 -0.4428 -0.2757
10278SOL    HW132275   0.936   6.998   7.273  0.3670 -2.3537  0.1810
10278SOL    HW232276   0.942   7.035   7.127  1.8981 -0.4498  0.6829
10279SOL     OW32277   2.092   4.335   4.776 -0.2086  0.0450 -0.9419
10279SOL    HW132278   2.060   4.425   4.785  0.5119  0.3831 -1.5970
10279SOL    HW232279   2.058   4.289   4.853  0.9961  1.3542  0.4162
10280SOL     OW32280   4.054   5.545   0.605  0.0357 -0.2512  0.5104
10280SOL    HW132281   4.116   5.554   0.677  1.9740 -0.6484 -1.0358
10280SOL    HW232282   4.055   5.452   0.583  0.0305 -0.0289 -0.4944
10281SOL     OW32283   7.398   4.022  11.403  0.2649  0.2929  0.6728
10281SOL    HW132284   7.340   3.981  11.468 -1.1860  1.4714  0.1783
10281SOL    HW232285   7.475   3.965  11.400 -1.2653 -1.9086  0.6485
10282SOL     OW32286   7.269   1.635   0.649  0.5897  0.4215 -0.0290
10282SOL    HW132287   7.246   1.714   0.698 -0.7976  1.3006 -1.9593
10282SOL    HW232288   7.365   1.629   0.658  0.5346  1.2915  1.6117
10283SOL     OW32289   3.498   3.752   1.428 -0.1221 -0.5105 -0.3066
10283SOL    HW132290   3.579   3.802   1.431  0.8579 -1.8528 -2.0853
10283SOL    HW232291   3.445   3.795   1.361 -0.0551 -0.7366 -0.5092
10284SOL     OW32292   6.783   4.260   6.636  0.0432  0.1675  0.4312
10284SOL    HW132293   6.853   4.232   6.696 -0.5145 -0.6426  0.7212
10284SOL    HW232294   6.749   4.178   6.600  1.8470  0.6629 -2.7531
10285SOL     OW32295   2.923   6.155   4.871  0.5157  0.2378 -0.3057
10285SOL    HW132296   2.938   6.084   4.934  0.6279  1.5506  1.2204
10285SOL    HW232297   2.829   6.152   4.853  0.1842  0.8058  1.1861
10286SOL     OW32298   2.723   7.021   2.348  0.1744  0.5999 -0.5214
10286SOL    HW132299   2.788   7.087   2.374 -1.0834  1.0506  1.7299
10286SOL    HW232300   2.676   7.062   2.275  0.3139  1.6296 -0.0529
10287SOL     OW32301   2.365   0.736   5.074 -0.9208 -0.3720 -0.2672
10287SOL    HW132302   2.432   0.691   5.022  2.5039  2.7470  1.0023
10287SOL    HW232303   2.322   0.795   5.011 -0.0421  0.0469 -0.4972
10288SOL     OW32304   3.753   6.453   6.976 -0.4131  0.1951  0.3625
10288SOL    HW132305   3.793   6.540   6.982 -2.0954  1.0781 -0.6599
10288SOL    HW232306   3.786   6.417   6.894  0.6294 -0.3609  0.9944
10289SOL     OW32307   6.332   1.761   3.825 -0.2475 -0.2900  1.2767
10289SOL    HW132308   6.286   1.722   3.899 -0.5096  0.2662  1.4111
10289SOL    HW232309   6.424   1.741   3.841 -0.5007 -2.2794  0.4929
10290SOL     OW32310   6.637   1.083  11.535  0.0953  0.1296  0.0555
10290SOL    HW132311   6.621   1.028  11.612  1.0285 -1.4614 -0.8455
10290SOL    HW232312   6.627   1.025  11.461 -1.1374  1.7237 -1.0927
10291SOL     OW32313   1.085   1.245   8.293 -0.1723 -0.2616 -0.5154
10291SOL    HW132314   1.047   1.227   8.379 -1.8145  0.1732 -1.1302
10291SOL    HW232315   1.173   1.206   8.298 -0.2709 -0.3402  1.3082
10292SOL     OW32316   3.062   0.026  11.177 -0.0415 -0.8182  0.3030
10292SOL    HW132317   3.127  -0.011  11.237  1.0190  0.8456  0.2442
10292SOL    HW232318   3.044  -0.044  11.114  0.7963 -1.7106  1.0291
10293SOL     OW32319   5.349   4.521   4.109  0.5015  0.1205 -0.3963
10293SOL    HW132320   5.288   4.503   4.180 -0.5073  1.0315 -1.0082
10293SOL    HW232321   5.390   4.436   4.091 -0.5675 -0.5103  0.0391
10294SOL     OW32322   1.594   7.650   5.126 -0.3610  0.3577 -0.3989
10294SOL    HW132323   1.665   7.620   5.069 -0.5057 -0.8407  0.0181
10294SOL    HW232324   1.638   7.702   5.194  0.0529  0.1226 -0.4851
10295SOL     OW32325   2.290   7.339   4.366 -0.2373  0.2252  0.6848
10295SOL    HW132326   2.294   7.255   4.412 -1.5273 -0.3874 -0.2381
10295SOL    HW232327   2.306   7.316   4.274  0.0954  1.0921  0.5181
10296SOL     OW32328   7.510   7.350   4.586 -0.0459  0.0989  0.1616
10296SOL    HW132329   7.504   7.443   4.564  1.4189 -0.1093 -1.3726
10296SOL    HW232330   7.489   7.346   4.679 -0.2181  1.9575  0.2533
10297SOL     OW32331   3.230   5.220  10.212 -0.7903  0.2534  0.2301
10297SOL    HW132332   3.289   5.237  10.138  0.0626 -0.8401  0.6435
10297SOL    HW232333   3.161   5.165  10.175  0.5196 -1.7208  0.5541
10298SOL     OW32334   1.080   0.290   7.631 -0.1123  0.1455  0.1637
10298SOL    HW132335   1.039   0.260   7.712  0.1779  0.6693  0.5115
10298SOL    HW232336   1.122   0.373   7.655  1.3275 -0.4704 -0.1203
10299SOL     OW32337   1.144   2.677   8.495 -0.8891 -0.3076  0.0943
10299SOL    HW132338   1.183   2.698   8.410  0.0279 -0.8198  0.3692
10299SOL    HW232339   1.109   2.589   8.485  0.1824 -0.8018  0.5479
10300SOL     OW32340   5.171   5.394   1.420 -0.0909  0.6425 -0.4264
10300SOL    HW132341   5.094   5.348   1.456 -0.1346  0.0057 -1.3090
10300SOL    HW232342   5.240   5.378   1.485 -0.5724  0.8134  0.1382
10301SOL     OW32343   5.243   0.269   8.801  0.0332 -0.2526  0.0338
10301SOL    HW132344   5.243   0.287   8.707  2.5467  0.2645  0.0531
10301SOL    HW232345   5.265   0.353   8.841  2.8126 -1.2130  0.7577
10302SOL     OW32346   4.379   5.748   3.514  0.0720  0.5481  0.1838
10302SOL    HW132347   4.310   5.697   3.557 -0.7002 -1.3725 -3.0227
10302SOL    HW232348   4.428   5.684   3.462  1.1398  2.6126 -1.5169
10303SOL     OW32349   1.899   1.219   3.933  0.3527  0.3469  0.4827
10303SOL    HW132350   1.920   1.264   4.015  0.7131  1.0321  0.0171
10303SOL    HW232351   1.887   1.127   3.960  2.2742  0.2086  1.0592
10304SOL     OW32352   1.464   3.317  10.938  0.1029 -0.1132 -0.5247
10304SOL    HW132353   1.369   3.313  10.947 -0.0065 -0.3229 -1.6292
10304SOL    HW232354   1.495   3.348  11.023 -0.7567 -2.6150  0.8288
10305SOL     OW32355   1.483   2.013   8.320  0.6328  0.2239  0.5324
10305SOL    HW132356   1.402   2.014   8.371  0.4646  0.9098  0.2616
10305SOL    HW232357   1.546   1.968   8.377 -0.0803 -0.8698  0.4997
10306SOL     OW32358   0.426   2.817   6.083 -0.6022  0.4172 -0.4342
10306SOL    HW132359   0.347   2.785   6.040 -0.2677 -0.6283 -0.3092
10306SOL    HW232360   0.429   2.769   6.166  0.2934  0.2325 -0.5603
10307SOL     OW32361   4.882   1.860   0.314  0.0216 -0.4411 -0.2748
10307SOL    HW132362   4.889   1.852   0.219  0.2197 -0.2486 -0.2790
10307SOL    HW232363   4.971   1.876   0.343 -0.2541  1.2914 -0.2457
10308SOL     OW32364   1.178   2.942   0.416 -0.0710  0.1516  0.4967
10308SOL    HW132365   1.137   2.923   0.331 -0.8635  0.8407  0.7121
10308SOL    HW232366   1.180   3.038   0.421  1.5600  0.1519  0.5170
10309SOL     OW32367   1.550   6.517   3.529  0.3831 -0.3136  0.3501
10309SOL    HW132368   1.480   6.581   3.532 -1.1043 -1.8058 -0.9063
10309SOL    HW232369   1.595   6.526   3.614 -2.7291 -0.8513  2.2015
10310SOL     OW32370   4.270   5.163   9.655  0.1148  0.1804 -0.0119
10310SOL    HW132371   4.188   5.210   9.668 -0.0152 -0.4977  2.0295
10310SOL    HW232372   4.331   5.229   9.622 -0.4469  1.4552  1.3956
10311SOL     OW32373   2.072   6.662  12.351  0.0787  0.1847  0.0435
10311SOL    HW132374   2.004   6.656  12.418 -1.3853  1.0939 -1.2759
10311SOL    HW232375   2.143   6.711  12.393 -0.4605  0.0385  1.1675
10312SOL     OW32376   1.986   6.382   4.693 -0.1766 -0.3142  0.1326
10312SOL    HW132377   1.910   6.343   4.651 -0.4644 -0.7657  1.0454
10312SOL    HW232378   2.053   6.383   4.625 -0.8369 -0.3855 -0.5299
10313SOL     OW32379   0.373   5.899   2.392  0.1892 -0.0301 -0.2499
10313SOL    HW132380   0.454   5.919   2.344  0.3489 -0.4039 -0.1389
10313SOL    HW232381   0.344   5.815   2.357 -1.3537  1.0955 -1.8563
10314SOL     OW32382   6.731   4.978  11.439  0.1499 -0.4127 -0.1369
10314SOL    HW132383   6.740   5.022  11.354 -2.0560 -0.0908 -0.2695
10314SOL    HW232384   6.768   5.039  11.502 -0.2247  0.3549 -0.6403
10315SOL     OW32385   7.741   1.689  12.184 -0.3648 -0.2637 -0.7343
10315SOL    HW132386   7.717   1.756  12.120  1.4362  0.8834 -0.2809
10315SOL    HW232387   7.829   1.663  12.159 -0.2861 -1.0315  0.2852
10316SOL     OW32388   0.691   1.301  11.148  0.1693 -0.4078  0.4410
10316SOL    HW132389   0.765   1.249  11.179  1.1024  1.2116  1.0597
10316SOL    HW232390   0.656   1.252  11.074  1.5323 -1.4897  0.4781
10317SOL     OW32391   7.906   3.212  11.631 -0.2203 -0.0305 -0.0477
10317SOL    HW132392   7.970   3.195  11.700  0.0938 -0.9192 -0.5459
10317SOL    HW232393   7.905   3.132  11.578  1.2671  1.4456 -2.4617
10318SOL     OW32394   2.553   3.079   3.658 -0.6902 -0.1647 -0.2618
10318SOL    HW132395   2.543   3.109   3.568 -1.2781 -1.3165 -0.6003
10318SOL    HW232396   2.473   3.029   3.676 -0.9878  0.8110  1.2174
10319SOL     OW32397   2.876   2.998   0.992  0.3477 -0.0470  0.1053
10319SOL    HW132398   2.859   3.019   1.084  2.4486 -1.4287  0.8830
10319SOL    HW232399   2.793   2.961   0.960  0.0113 -0.9309  1.8810
10320SOL     OW32400   7.746   6.507   3.653 -0.1414 -0.0545 -0.0917
10320SOL    HW132401   7.676   6.457   3.611  0.7170 -0.6009 -0.9365
10320SOL    HW232402   7.707   6.592   3.673 -0.9770 -0.2629 -0.7652
10321SOL     OW32403   1.077   1.335   2.649  0.6594 -0.1088  0.4397
10321SOL    HW132404   1.007   1.381   2.694  1.2960 -0.3538  1.7449
10321SOL    HW232405   1.155   1.389   2.665  0.8029  0.1210 -0.9182
10322SOL     OW32406   4.818   7.765  10.091 -0.2263  0.3936  0.3120
10322SOL    HW132407   4.761   7.695  10.124  0.0218  0.0937  0.1104
10322SOL    HW232408   4.776   7.794  10.010  0.1071 -0.0891 -0.0374
10323SOL     OW32409   7.137   6.963   8.505 -0.0969 -0.1984 -0.1075
10323SOL    HW132410   7.102   7.024   8.440  2.2067  0.2723 -1.0099
10323SOL    HW232411   7.105   6.996   8.589  0.1152  1.5765 -0.6809
10324SOL     OW32412   0.491   6.134   5.329  0.7325  0.2913  0.3546
10324SOL    HW132413   0.489   6.137   5.425 -1.6868 -1.5563  0.4643
10324SOL    HW232414   0.556   6.067   5.309 -1.4817 -2.2610  1.0013
10325SOL     OW32415   7.734   3.053   7.058 -0.1929  0.4165 -0.8915
10325SOL    HW132416   7.725   3.017   6.970  2.0112  0.9568 -1.3968
10325SOL    HW232417   7.695   3.140   7.053  1.8727  1.3379 -2.0063
10326SOL     OW32418   7.593   5.800   7.111 -0.0600  0.4701  0.1030
10326SOL    HW132419   7.603   5.893   7.094  2.5424  0.3910  0.6903
10326SOL    HW232420   7.659   5.758   7.055 -0.8095 -0.9773  0.2407
10327SOL     OW32421   4.503   3.403   2.453  0.5347 -0.2221  0.6489
10327SOL    HW132422   4.433   3.405   2.518  0.7291 -2.3600  1.0181
10327SOL    HW232423   4.485   3.477   2.395 -3.4091 -1.8644 -0.6078
10328SOL     OW32424   2.856   4.704   3.491  0.2006 -0.2957  0.2651
10328SOL    HW132425   2.936   4.722   3.540  0.5305 -1.3186  0.1217
10328SOL    HW232426   2.857   4.609   3.477  0.0537 -0.0538 -1.5939
10329SOL     OW32427   2.100   5.464   8.064 -0.6312 -0.4937 -0.0782
10329SOL    HW132428   2.101   5.553   8.100  0.5856 -0.3829 -0.3245
10329SOL    HW232429   2.008   5.440   8.061 -1.0808  1.1438 -0.9260
10330SOL     OW32430   7.160   3.125   9.970  0.0118 -0.2073  0.8636
10330SOL    HW132431   7.245   3.166   9.983  0.1593  0.1629 -0.9632
10330SOL    HW232432   7.097   3.186  10.008  0.5183 -0.3881  2.0467
10331SOL     OW32433   6.886   6.269  10.955 -0.0440 -0.1931  0.4983
10331SOL    HW132434   6.937   6.316  11.022  1.1823  1.3453 -1.3765
10331SOL    HW232435   6.949   6.209  10.915 -0.8439 -1.3309  0.9017
10332SOL     OW32436   4.740   6.657   2.944 -0.1196  0.1044 -0.2378
10332SOL    HW132437   4.821   6.705   2.958  0.2437 -0.8123  1.0064
10332SOL    HW232438   4.694   6.663   3.029 -1.5535  0.9447 -1.0273
10333SOL     OW32439   1.351   6.842   2.788  0.1959 -0.0525 -0.7667
10333SOL    HW132440   1.439   6.868   2.762  1.0139 -1.9801 -0.1482
10333SOL    HW232441   1.300   6.923   2.785  2.3769  1.4945  0.5491
10334SOL     OW32442   5.386   0.257   2.512 -0.2607  0.4801  0.0362
10334SOL    HW132443   5.299   0.252   2.550 -0.1778  0.1184  0.1855
10334SOL    HW232444   5.425   0.172   2.531  0.7348  1.2052  1.4235
10335SOL     OW32445   7.050   6.753  11.420  0.9343 -0.0795 -0.1467
10335SOL    HW132446   7.017   6.724  11.505  0.6072  0.4773 -0.0802
10335SOL    HW232447   7.051   6.848  11.426 -1.8212  0.1449 -1.7626
10336SOL     OW32448   5.554   5.710  11.344 -0.3379 -1.2173 -0.3011
10336SOL    HW132449   5.637   5.671  11.374 -1.0131 -1.1431  1.8492
10336SOL    HW232450   5.542   5.786  11.400 -2.2713 -1.7293  0.0604
10337SOL     OW32451   3.585   5.160  11.913  0.4946  0.0275  0.2020
10337SOL    HW132452   3.519   5.109  11.866 -0.9548  0.6383  1.5181
10337SOL    HW232453   3.575   5.135  12.005 -1.4117  3.7422  1.1915
10338SOL     OW32454   6.165   3.297   2.499  0.6740  0.2342  0.6034
10338SOL    HW132455   6.138   3.356   2.428 -0.9340 -0.2838  0.7460
10338SOL    HW232456   6.250   3.330   2.526  0.2312  1.9315  0.0619
10339SOL     OW32457   1.853   0.207  10.523 -0.2276  0.4828 -0.1494
10339SOL    HW132458   1.893   0.201  10.610 -0.2810  0.1044 -0.1481
10339SOL    HW232459   1.810   0.292  10.521  0.0592  0.6332  0.0741
10340SOL     OW32460   4.464   4.646   3.129 -0.9869 -0.0297  0.5092
10340SOL    HW132461   4.466   4.618   3.220  1.3214  0.1999  0.5848
10340SOL    HW232462   4.553   4.677   3.111 -1.8250  1.5745 -1.3210
10341SOL     OW32463   2.464   7.877  12.124 -0.1573 -0.4861  0.2954
10341SOL    HW132464   2.421   7.894  12.208  0.3109 -0.9260  0.6336
10341SOL    HW232465   2.393   7.854  12.064 -0.5115 -0.0038  0.5257
10342SOL     OW32466   2.161   6.606   3.262  0.0618 -0.0147 -0.6834
10342SOL    HW132467   2.164   6.702   3.255  1.1905 -0.0366 -0.6955
10342SOL    HW232468   2.149   6.590   3.355 -0.2006  0.1374 -0.6894
10343SOL     OW32469   1.123   6.553   9.359  0.1080 -0.0681  0.6930
10343SOL    HW132470   1.185   6.611   9.403  0.8187 -1.7464  2.0357
10343SOL    HW232471   1.161   6.536   9.273  1.1021 -0.4056  1.1850
10344SOL     OW32472   4.155   7.786  10.834  0.0398 -0.0177 -0.1760
10344SOL    HW132473   4.148   7.702  10.880 -1.1637 -0.4552 -1.0778
10344SOL    HW232474   4.167   7.851  10.903  0.7638 -0.9071  0.5537
10345SOL     OW32475   3.044   0.396   8.201 -0.4177  0.1942  0.4111
10345SOL    HW132476   3.010   0.453   8.132 -1.0366 -0.1799  0.3995
10345SOL    HW232477   3.050   0.310   8.161  1.0420  0.3422  0.2658
10346SOL     OW32478   2.166   6.683   1.601 -0.0795 -0.2781 -0.5942
10346SOL    HW132479   2.141   6.760   1.550 -0.2215  1.3262  1.7397
10346SOL    HW232480   2.088   6.662   1.653  0.0027 -1.9591 -1.0814
10347SOL     OW32481   0.917   1.885   3.576  0.3079 -0.2722  0.1039
10347SOL    HW132482   0.874   1.885   3.662  1.0702  0.5286  0.5038
10347SOL    HW232483   0.911   1.795   3.546 -2.4920 -0.0470 -0.3126
10348SOL     OW32484   0.455   2.097  10.254  0.2557  0.1737  0.0420
10348SOL    HW132485   0.439   2.190  10.235 -0.5933  0.1241  0.5069
10348SOL    HW232486   0.469   2.058  10.167  0.8078  0.7543 -0.1505
10349SOL     OW32487   0.859   1.445   8.504  0.5622 -0.3027  0.2794
10349SOL    HW132488   0.921   1.476   8.438 -0.1614  1.6907  0.4657
10349SOL    HW232489   0.793   1.514   8.508 -0.7177 -1.5442  1.3526
10350SOL     OW32490   2.556   1.160   7.906 -0.1371  0.8868 -0.4427
10350SOL    HW132491   2.548   1.156   8.001 -1.1080  0.6079 -0.5318
10350SOL    HW232492   2.467   1.148   7.873  0.2618  0.4311 -1.4032
10351SOL     OW32493   2.501   2.935   3.262  0.0413 -0.0695  0.2854
10351SOL    HW132494   2.453   2.982   3.331 -1.3885 -1.0798  0.0353
10351SOL    HW232495   2.499   2.994   3.187  0.6202  0.5722  0.7660
10352SOL     OW32496   2.914   4.957   4.859 -0.1739  0.3311 -0.3288
10352SOL    HW132497   2.919   4.925   4.949 -0.5131  0.5617 -0.2267
10352SOL    HW232498   2.962   5.040   4.862 -3.5210  2.4346  0.5995
10353SOL     OW32499   7.669   6.542   6.234 -0.1076 -0.0073 -0.3623
10353SOL    HW132500   7.654   6.594   6.313  1.0103  0.6535 -0.5740
10353SOL    HW232501   7.699   6.605   6.168  0.6430 -0.8145 -0.8115
10354SOL     OW32502   3.203   1.387   1.670 -0.0142 -0.1211 -0.3941
10354SOL    HW132503   3.258   1.453   1.711 -1.7065  0.9755  0.2361
10354SOL    HW232504   3.239   1.377   1.582  1.3081  0.3772  0.0677
10355SOL     OW32505   4.224   7.788   3.999  0.0857 -0.2933  0.6446
10355SOL    HW132506   4.131   7.811   3.991  0.1733  0.3829  1.4817
10355SOL    HW232507   4.248   7.813   4.088  1.0647 -0.5211  0.4589
10356SOL     OW32508   2.323   0.450   2.514  0.2238  0.5089 -0.0550
10356SOL    HW132509   2.235   0.487   2.515 -0.2335 -0.5033  1.7177
10356SOL    HW232510   2.339   0.425   2.605  2.0558 -0.0159 -0.4867
10357SOL     OW32511   0.812   0.763   1.080  0.2095  0.5746 -0.3952
10357SOL    HW132512   0.750   0.714   1.134 -0.7510  1.7034 -0.4222
10357SOL    HW232513   0.772   0.762   0.993  0.3366  1.1185 -0.4630
10358SOL     OW32514   3.400   2.903  10.182  0.2497 -0.0535 -0.0548
10358SOL    HW132515   3.382   2.934  10.093  0.7417 -0.4814 -0.3097
10358SOL    HW232516   3.494   2.916  10.194  0.4233 -1.1848 -0.0771
10359SOL     OW32517   6.687   4.886   7.268 -0.0191 -0.3279  0.3032
10359SOL    HW132518   6.612   4.896   7.327 -0.5974  2.1169 -0.7328
10359SOL    HW232519   6.736   4.968   7.277  0.7714 -0.5652 -1.3965
10360SOL     OW32520   6.052   2.332   3.954 -0.9812 -0.3252  0.1649
10360SOL    HW132521   6.105   2.361   4.027  0.5073  0.5517 -1.1935
10360SOL    HW232522   6.004   2.411   3.926 -0.5541 -0.3190 -0.5835
10361SOL     OW32523   6.577   3.790   9.020 -0.0149  0.2718 -0.6369
10361SOL    HW132524   6.656   3.742   8.994 -0.5986 -1.4466  0.5596
10361SOL    HW232525   6.506   3.726   9.011 -1.1741  1.5640 -0.9982
10362SOL     OW32526   2.876   2.515  12.211 -0.0738  0.3231 -0.5251
10362SOL    HW132527   2.934   2.586  12.186 -0.0995  0.2986 -0.6519
10362SOL    HW232528   2.797   2.527  12.158 -0.6903  1.0809  0.5225
10363SOL     OW32529   4.317   7.572   4.791  0.2560  0.1550 -0.0793
10363SOL    HW132530   4.261   7.556   4.715 -0.4161 -0.4826  0.5342
10363SOL    HW232531   4.293   7.504   4.854  1.3331  0.2109  0.4220
10364SOL     OW32532   6.588   7.494   0.490  0.1767  0.4818 -0.1931
10364SOL    HW132533   6.661   7.523   0.545  0.3467  0.0735 -0.1972
10364SOL    HW232534   6.597   7.399   0.487 -2.9797 -0.1587  3.5745
10365SOL     OW32535   4.059   6.202   1.949  0.0038 -0.6783 -0.4953
10365SOL    HW132536   4.032   6.266   1.884  1.4401  0.1641 -0.3155
10365SOL    HW232537   4.058   6.118   1.902 -1.0547 -0.4047 -0.9784
10366SOL     OW32538   0.313   4.164  10.974  0.1853 -0.1470  0.1404
10366SOL    HW132539   0.255   4.160  10.899  2.6885 -0.3193 -1.9258
10366SOL    HW232540   0.291   4.246  11.017 -1.0370  0.1561 -1.0052
10367SOL     OW32541   3.819   6.589  11.086 -0.1198  0.4000  0.0388
10367SOL    HW132542   3.790   6.553  11.002 -0.1746 -0.6419  0.4819
10367SOL    HW232543   3.912   6.607  11.074  0.0444 -0.4477 -0.0247
10368SOL     OW32544   7.787   0.901  10.362  0.4361 -0.1183  0.1153
10368SOL    HW132545   7.860   0.951  10.398  1.4931 -1.3975 -0.1896
10368SOL    HW232546   7.713   0.962  10.364  1.6054  1.3491  0.0192
10369SOL     OW32547   1.720   0.059   9.938 -0.0494 -0.0321  0.0621
10369SOL    HW132548   1.812   0.083   9.922 -0.3937  0.8779 -0.6466
10369SOL    HW232549   1.722  -0.035   9.955  0.9510 -0.1191 -0.4731
10370SOL     OW32550   1.599   5.660   6.320 -0.4323 -0.1207  0.1069
10370SOL    HW132551   1.693   5.643   6.321 -0.0809  1.5991  0.2051
10370SOL    HW232552   1.563   5.605   6.389  0.4317 -1.1099 -0.2188
10371SOL     OW32553   1.768   0.833   2.206  0.5679 -0.5987  0.2726
10371SOL    HW132554   1.774   0.744   2.171  1.1387 -1.3302  2.1248
10371SOL    HW232555   1.681   0.863   2.180  0.3306 -1.7292 -0.3123
10372SOL     OW32556   4.424   1.226   3.588 -0.0609 -0.3786  0.5015
10372SOL    HW132557   4.476   1.230   3.507 -1.3605  0.7141 -0.3228
10372SOL    HW232558   4.483   1.187   3.652  0.9646 -1.4389 -1.0061
10373SOL     OW32559   3.579   7.790   0.894  0.4892 -0.2202  0.4529
10373SOL    HW132560   3.659   7.798   0.946  0.3014  1.3370  0.5335
10373SOL    HW232561   3.598   7.839   0.813 -0.8315  1.3532  1.0541
10374SOL     OW32562   2.646   7.134   1.522 -0.3267  0.3798 -0.0776
10374SOL    HW132563   2.565   7.157   1.476 -0.7547 -0.0639  0.4392
10374SOL    HW232564   2.632   7.165   1.611  0.5745  1.4020 -0.2672
10375SOL     OW32565   6.856   2.798   1.659  0.2801  0.1324  0.4248
10375SOL    HW132566   6.900   2.729   1.610 -0.6832 -1.1733  1.3253
10375SOL    HW232567   6.926   2.844   1.704  1.1738  1.2129 -1.8951
10376SOL     OW32568   0.923   0.773   1.409  0.2567 -0.4513  0.8807
10376SOL    HW132569   0.979   0.696   1.416  1.5584  0.3151 -0.5302
10376SOL    HW232570   0.855   0.746   1.346 -0.4164 -1.0515  1.8393
10377SOL     OW32571   4.362   0.179   9.335  0.1338 -0.3700 -0.1121
10377SOL    HW132572   4.333   0.168   9.245  0.0284  0.2786 -0.1636
10377SOL    HW232573   4.450   0.217   9.327  0.0190 -0.0684  0.0573
10378SOL     OW32574   3.305   6.181  11.970 -0.0167  0.2697  0.5456
10378SOL    HW132575   3.393   6.194  12.002  0.9618 -1.8225 -1.0108
10378SOL    HW232576   3.249   6.186  12.047  1.6523  0.0490  1.8053
10379SOL     OW32577   5.633   6.671   9.052 -0.6131 -0.1681 -0.0704
10379SOL    HW132578   5.678   6.661   8.968  1.2347 -0.0342  0.8392
10379SOL    HW232579   5.645   6.764   9.074 -0.8944 -0.2513  0.4474
10380SOL     OW32580   5.399   4.875  10.706  0.2157  0.1383 -0.1107
10380SOL    HW132581   5.359   4.962  10.711  0.2857  0.2074 -0.7465
10380SOL    HW232582   5.386   4.838  10.793 -0.3232  0.5623 -0.0087
10381SOL     OW32583   3.969   3.544   0.454 -0.1231  0.3759 -0.1501
10381SOL    HW132584   3.978   3.477   0.386  1.7460  1.5269 -1.1140
10381SOL    HW232585   3.935   3.497   0.530 -0.7448 -1.2581 -1.3951
10382SOL     OW32586   7.061   5.114   7.097 -0.0759  0.9585  0.1642
10382SOL    HW132587   6.990   5.051   7.109 -0.7726  1.6038 -0.4981
10382SOL    HW232588   7.129   5.086   7.159 -0.9262  0.3789  0.8499
10383SOL     OW32589   5.982   5.929  11.300  0.2949 -0.6128  0.3302
10383SOL    HW132590   5.968   5.937  11.394  1.2688 -1.1570  0.5365
10383SOL    HW232591   5.938   6.006  11.263  0.1668 -0.2234  1.2486
10384SOL     OW32592   1.386   6.010  11.748  0.0545 -0.2815 -0.6831
10384SOL    HW132593   1.352   6.088  11.792 -1.0298  0.0579 -2.0573
10384SOL    HW232594   1.381   5.941  11.815 -0.3539  0.4938  0.1125
10385SOL     OW32595   2.405   6.442   9.962  0.0809 -0.5359 -0.2602
10385SOL    HW132596   2.330   6.383   9.953  0.0195 -0.5294  0.2120
10385SOL    HW232597   2.399   6.475  10.051  1.5008 -1.6882  0.2987
10386SOL     OW32598   6.740   3.746  12.175  0.4355 -0.7865 -0.7576
10386SOL    HW132599   6.744   3.676  12.241  0.7143  1.1653  1.4566
10386SOL    HW232600   6.667   3.723  12.119 -0.9710 -1.7019  1.3294
10387SOL     OW32601   4.550   1.843   2.756 -0.2078 -0.1371  0.2455
10387SOL    HW132602   4.526   1.770   2.813 -0.1931 -0.0117  0.4146
10387SOL    HW232603   4.604   1.900   2.811  0.6131 -0.4923 -0.1759
10388SOL     OW32604   7.832   0.666   3.454  0.0427 -0.3326  0.6384
10388SOL    HW132605   7.776   0.683   3.378  0.1623  1.7508  0.9720
10388SOL    HW232606   7.903   0.729   3.446  0.0388 -0.0392  2.4926
10389SOL     OW32607   4.695   6.482  11.650  0.0851 -0.1779 -0.1995
10389SOL    HW132608   4.736   6.511  11.732  0.6315  0.0249 -0.5435
10389SOL    HW232609   4.727   6.393  11.638  0.6986  0.0936 -0.6372
10390SOL     OW32610   1.985   1.627   2.597  0.0329 -0.3791  0.9906
10390SOL    HW132611   1.926   1.601   2.669 -0.1981  2.4600  1.9685
10390SOL    HW232612   2.060   1.666   2.641 -0.8090  2.8697 -0.1963
10391SOL     OW32613   2.559   5.247   1.021  0.1320 -0.0185 -0.2743
10391SOL    HW132614   2.648   5.211   1.015 -0.3399 -1.4017  0.5666
10391SOL    HW232615   2.544   5.259   1.114 -0.6716 -0.0992 -0.3873
10392SOL     OW32616   3.919   7.796   1.451  0.8067  0.4060 -0.7523
10392SOL    HW132617   3.909   7.889   1.435  2.0926  0.6503 -0.2718
10392SOL    HW232618   3.858   7.777   1.523  1.7948  1.2589  0.3439
10393SOL     OW32619   3.883   6.168   1.298  0.5982  0.3448  0.0871
10393SOL    HW132620   3.829   6.122   1.361 -0.5220  0.5933 -0.6525
10393SOL    HW232621   3.878   6.260   1.324 -0.2512  0.5135 -0.5910
10394SOL     OW32622   2.529   6.163   9.068  0.6286  0.5698  0.2477
10394SOL    HW132623   2.520   6.142   8.975  1.8464  0.8707  0.0416
10394SOL    HW232624   2.511   6.256   9.074  1.2694  0.7080  0.1779
10395SOL     OW32625   2.186   5.076  10.793  0.2039 -0.1670 -0.4542
10395SOL    HW132626   2.236   5.119  10.862  0.6973 -0.3651 -0.6838
10395SOL    HW232627   2.104   5.125  10.788  1.3527  1.7462 -1.7655
10396SOL     OW32628   2.198   5.539   9.372  0.2355  0.4073 -0.0330
10396SOL    HW132629   2.103   5.529   9.368  0.2278  0.0170  0.7913
10396SOL    HW232630   2.232   5.454   9.343  0.2979  0.0908  0.9345
10397SOL     OW32631   7.247   2.886   1.058  0.3136 -0.2210  0.1846
10397SOL    HW132632   7.231   2.981   1.054 -1.1314 -0.4528 -0.5421
10397SOL    HW232633   7.198   2.851   0.983 -1.4500 -1.8049  1.9566
10398SOL     OW32634   1.444   0.483   7.482 -0.9447 -0.8027 -0.0162
10398SOL    HW132635   1.484   0.570   7.478  2.2864 -2.1216  0.5335
10398SOL    HW232636   1.417   0.464   7.392  0.7056 -0.2378 -0.6510
10399SOL     OW32637   7.070   7.429   3.492 -0.1572  0.1552  0.1363
10399SOL    HW132638   7.064   7.524   3.479  1.6117  0.2428 -0.2305
10399SOL    HW232639   7.161   7.414   3.519 -0.0154 -1.5747 -1.1160
10400SOL     OW32640   5.335   6.502   1.200 -0.8650 -0.3970 -0.3901
10400SOL    HW132641   5.261   6.563   1.209 -0.7483 -0.1859 -0.8127
10400SOL    HW232642   5.303   6.433   1.142 -1.4898 -1.5462  1.2627
10401SOL     OW32643   2.676   2.202   7.158  0.8583  0.1501 -0.3177
10401SOL    HW132644   2.730   2.227   7.083  0.0297  1.0873 -0.6422
10401SOL    HW232645   2.615   2.137   7.123  0.5443  0.5065 -0.4535
10402SOL     OW32646   1.434   7.390   5.782  0.1679 -0.6265  0.5099
10402SOL    HW132647   1.500   7.459   5.778  0.7930 -1.2522 -0.2410
10402SOL    HW232648   1.460   7.328   5.714 -2.2098 -0.0054 -1.0452
10403SOL     OW32649   2.568   7.305   2.712  0.1162  0.3960  0.2192
10403SOL    HW132650   2.585   7.216   2.744  0.4723  0.7226  0.9462
10403SOL    HW232651   2.652   7.334   2.677 -0.3364 -0.0678 -1.3215
10404SOL     OW32652   3.682   7.079   6.072  0.1327 -0.4493  0.0465
10404SOL    HW132653   3.640   6.993   6.073 -0.4435 -0.1679  0.9749
10404SOL    HW232654   3.774   7.060   6.091 -0.0123 -0.8468  0.3675
10405SOL     OW32655   1.724   7.700   2.156 -0.0671  0.4109  0.4623
10405SOL    HW132656   1.722   7.793   2.134  0.8280  0.5390  0.8885
10405SOL    HW232657   1.637   7.668   2.132 -0.7241  1.5667  1.2170
10406SOL     OW32658   7.516   5.615   4.375  0.0330  0.1366  0.4666
10406SOL    HW132659   7.499   5.577   4.289  0.4898  0.6308  0.1526
10406SOL    HW232660   7.574   5.552   4.418  2.7525  1.4992 -0.9387
10407SOL     OW32661   1.264   4.960   0.013 -0.1596 -0.2662 -0.2228
10407SOL    HW132662   1.304   5.047   0.005  0.6316 -0.7054 -1.2735
10407SOL    HW232663   1.243   4.952   0.106  1.2074  0.4290  0.1784
10408SOL     OW32664   2.462   2.383   9.224 -0.2404 -0.2315  0.1685
10408SOL    HW132665   2.506   2.465   9.201  1.1992 -0.8835  0.4841
10408SOL    HW232666   2.370   2.398   9.202  0.2581  0.8909 -1.3391
10409SOL     OW32667   5.284   0.953   7.637 -0.2898  0.0304 -0.0125
10409SOL    HW132668   5.350   0.998   7.690 -1.7167  1.5067  0.5962
10409SOL    HW232669   5.262   1.015   7.568 -1.3078 -0.3013  0.0053
10410SOL     OW32670   4.307   6.972   7.297  0.2732  0.5669 -0.1655
10410SOL    HW132671   4.302   7.011   7.385 -1.9087  1.4149 -0.6122
10410SOL    HW232672   4.216   6.963   7.270  0.8713 -0.8021 -1.8952
10411SOL     OW32673   0.516   1.063  11.593  0.0322  0.0713 -0.3077
10411SOL    HW132674   0.544   0.975  11.617  0.8553  0.1324 -0.9880
10411SOL    HW232675   0.581   1.121  11.632  0.5592  0.2556 -1.4123
10412SOL     OW32676   0.931   1.627   4.818  0.0926 -0.3340 -0.0979
10412SOL    HW132677   0.844   1.611   4.781 -0.5181  1.2981  0.5294
10412SOL    HW232678   0.992   1.587   4.756 -1.1394 -4.0814  0.8448
10413SOL     OW32679   4.336   2.027   0.152 -0.1569  0.5920  0.1180
10413SOL    HW132680   4.424   1.997   0.127 -0.7558 -1.2178 -0.0195
10413SOL    HW232681   4.283   2.015   0.073 -0.3742  2.4765 -0.0527
10414SOL     OW32682   5.575   4.116   9.256  0.2611  0.0630 -0.0718
10414SOL    HW132683   5.629   4.140   9.331 -0.7276 -1.7733  1.3139
10414SOL    HW232684   5.486   4.139   9.283  0.1334  2.1529 -1.9358
10415SOL     OW32685   4.938   6.115  12.144  0.0248 -0.1249 -0.5592
10415SOL    HW132686   4.902   6.091  12.058 -1.9515  0.5815  0.0137
10415SOL    HW232687   4.922   6.209  12.151  1.3943  0.0760  0.0525
10416SOL     OW32688   3.312   6.459   1.523  0.7410 -0.4072  0.1975
10416SOL    HW132689   3.335   6.514   1.448  0.1137  0.7704  0.8260
10416SOL    HW232690   3.228   6.420   1.499 -0.8381  2.0769  1.2738
10417SOL     OW32691   6.196   3.933   6.710 -0.1162 -0.1370 -0.1767
10417SOL    HW132692   6.124   3.901   6.765  0.0022 -0.3175 -0.1258
10417SOL    HW232693   6.257   3.859   6.705 -1.0132 -0.8209 -2.1432
10418SOL     OW32694   5.713   5.576   1.893 -0.5101  0.1582  0.1818
10418SOL    HW132695   5.788   5.545   1.944 -1.6321  0.0556  1.8846
10418SOL    HW232696   5.729   5.547   1.804  0.7459 -1.1719  0.8134
10419SOL     OW32697   3.099   4.896   3.792  0.1076 -0.2843 -0.5002
10419SOL    HW132698   3.176   4.840   3.776 -0.8901 -0.9582 -3.9080
10419SOL    HW232699   3.120   4.978   3.747 -0.4797  0.1572  0.0204
10420SOL     OW32700   6.035   5.965   6.768 -0.0403 -0.3920 -0.7159
10420SOL    HW132701   5.975   6.002   6.703 -0.5916  0.1920  0.1053
10420SOL    HW232702   5.978   5.924   6.833  0.5391 -1.8391 -1.0931
10421SOL     OW32703   2.638   5.530   9.880  0.5183 -0.1745  0.3208
10421SOL    HW132704   2.655   5.448   9.835  0.6693  0.2352 -0.3813
10421SOL    HW232705   2.553   5.517   9.923 -0.4158 -0.0370 -1.4116
10422SOL     OW32706   7.517   3.919   1.415  0.6173 -0.3991 -0.2306
10422SOL    HW132707   7.608   3.891   1.412  1.1054  0.7098  1.9204
10422SOL    HW232708   7.507   3.977   1.340  1.7988 -0.2284 -0.2755
10423SOL     OW32709   4.528   5.706   8.601 -0.0782 -0.0245  0.0052
10423SOL    HW132710   4.488   5.781   8.557 -0.3674  0.1385  0.5341
10423SOL    HW232711   4.554   5.739   8.687  0.2329 -0.4061  0.0615
10424SOL     OW32712   7.431   1.043   6.626  0.5113 -0.0526 -1.1490
10424SOL    HW132713   7.474   1.128   6.627 -1.3135  0.9467  0.5050
10424SOL    HW232714   7.344   1.060   6.663  0.2618 -2.7153 -0.2960
10425SOL     OW32715   1.154   5.087   4.412 -0.3415 -0.3355 -0.0532
10425SOL    HW132716   1.238   5.130   4.429 -0.8792  0.6291  0.2681
10425SOL    HW232717   1.159   5.060   4.321  1.0811 -2.0980  0.4976
10426SOL     OW32718   2.627   2.393  10.841  0.5301  0.1667  0.0407
10426SOL    HW132719   2.634   2.460  10.909  1.2283  0.0147  0.1353
10426SOL    HW232720   2.563   2.427  10.779  2.3147  1.8937 -0.9822
10427SOL     OW32721   1.544   5.615   7.485  0.1895 -0.1657  0.1733
10427SOL    HW132722   1.468   5.587   7.537 -0.0917  0.9302  0.3752
10427SOL    HW232723   1.619   5.584   7.536 -0.1029 -1.3176 -0.0597
10428SOL     OW32724   0.835   2.017  11.993 -0.0639 -0.3201 -0.8790
10428SOL    HW132725   0.763   2.041  12.051  0.5497 -3.5664  1.4722
10428SOL    HW232726   0.909   2.070  12.023 -0.5992  0.5454 -1.0558
10429SOL     OW32727   5.995   0.067   6.567 -0.0894 -0.0129  0.1252
10429SOL    HW132728   5.916   0.043   6.615 -0.8928  2.7254  0.3451
10429SOL    HW232729   5.984   0.028   6.480  0.0308 -2.6036  1.1935
10430SOL     OW32730   3.786   0.839   0.220  0.8088  0.1521  0.0773
10430SOL    HW132731   3.873   0.861   0.188  0.0025 -0.4345 -2.7922
10430SOL    HW232732   3.745   0.792   0.147 -2.0656  0.8306  1.1361
10431SOL     OW32733   3.693   0.566   0.879 -0.2332  0.5093 -0.2579
10431SOL    HW132734   3.729   0.497   0.823  0.8826  0.3124  0.6833
10431SOL    HW232735   3.612   0.528   0.914 -0.4968  0.3191 -1.0415
10432SOL     OW32736   4.559   7.728   1.608 -0.1196 -0.1616 -0.0183
10432SOL    HW132737   4.584   7.820   1.599 -0.3359 -0.1101 -0.1097
10432SOL    HW232738   4.473   7.731   1.651 -0.2727 -0.3101 -0.3124
10433SOL     OW32739   5.246   2.484   5.758  0.2034 -0.3238 -0.2144
10433SOL    HW132740   5.235   2.536   5.838 -0.9264 -1.6443  0.5372
10433SOL    HW232741   5.340   2.486   5.740  0.1870  2.0953 -0.3384
10434SOL     OW32742   6.000   1.155   3.358  0.0335 -0.1046 -0.1793
10434SOL    HW132743   6.035   1.234   3.400 -1.3621 -0.2068  1.2733
10434SOL    HW232744   6.055   1.085   3.392  0.4225  0.0840 -0.4088
10435SOL     OW32745   6.095   0.030   8.893 -0.1126  0.0854  0.3645
10435SOL    HW132746   6.129  -0.056   8.918 -0.6071 -0.4525 -0.7466
10435SOL    HW232747   6.172   0.078   8.863  0.2294  0.1859  1.3725
10436SOL     OW32748   0.819   1.795   5.950  0.5964 -0.7768 -0.5447
10436SOL    HW132749   0.736   1.764   5.987  0.4094 -1.4451 -1.4655
10436SOL    HW232750   0.800   1.806   5.857  1.9616 -2.5985 -1.1108
10437SOL     OW32751   3.144   3.587   6.000  0.3088  0.2490 -0.5551
10437SOL    HW132752   3.168   3.495   6.015 -1.5443 -0.3678 -1.1752
10437SOL    HW232753   3.226   3.628   5.970  1.4908 -0.8716  0.9355
10438SOL     OW32754   7.335   1.778   9.174  0.2235 -0.3880  0.3186
10438SOL    HW132755   7.271   1.744   9.236 -0.2479 -2.0043 -0.9695
10438SOL    HW232756   7.362   1.862   9.210 -2.7468  0.4624  0.8433
10439SOL     OW32757   4.832   5.735   4.686 -0.1587  0.3842 -0.2077
10439SOL    HW132758   4.883   5.661   4.718  0.3971 -0.0664 -2.0096
10439SOL    HW232759   4.895   5.789   4.639 -0.6951  1.6634  0.5068
10440SOL     OW32760   0.854   3.420  12.333 -0.5484  0.3625  0.4791
10440SOL    HW132761   0.945   3.425  12.304 -1.3759  0.3824 -2.3679
10440SOL    HW232762   0.860   3.404  12.427  2.3745  0.5434  0.4140
10441SOL     OW32763   3.811   7.597   2.753  0.2069 -0.2420  0.5667
10441SOL    HW132764   3.741   7.585   2.817 -0.2187  3.1006  0.8692
10441SOL    HW232765   3.768   7.586   2.668 -0.0286 -0.9631  0.7687
10442SOL     OW32766   3.021   6.346   0.920  0.6831 -0.1368 -0.0685
10442SOL    HW132767   3.108   6.365   0.953  0.9040 -0.8745 -0.1939
10442SOL    HW232768   3.008   6.253   0.940 -0.0602 -0.0362 -0.0731
10443SOL     OW32769   5.396   5.138   5.440 -0.1285 -0.0072  0.3902
10443SOL    HW132770   5.449   5.102   5.369 -0.3311  0.7919 -0.1728
10443SOL    HW232771   5.460   5.178   5.499 -0.0315  0.1513  0.1788
10444SOL     OW32772   0.270   0.930   0.787  0.6390  0.1901 -0.2954
10444SOL    HW132773   0.281   0.841   0.755 -0.4290 -0.5430  1.2193
10444SOL    HW232774   0.303   0.927   0.877 -0.3203  1.0553  0.1025
10445SOL     OW32775   4.069   4.950   4.474  0.1835  0.2888 -0.1031
10445SOL    HW132776   3.999   4.967   4.411  0.6836  0.8299 -0.5227
10445SOL    HW232777   4.061   4.857   4.494  0.2028  0.0293 -1.2127
10446SOL     OW32778   7.073   0.989   5.542 -0.1055  0.1306  0.1656
10446SOL    HW132779   7.119   1.068   5.571 -1.5953  0.9943  0.2885
10446SOL    HW232780   6.982   1.017   5.530 -0.3695 -1.2208 -1.2786
10447SOL     OW32781   4.393   4.988   2.586  0.0263  0.2444 -0.2894
10447SOL    HW132782   4.404   5.066   2.641  2.0459  0.9564 -1.5860
10447SOL    HW232783   4.342   5.019   2.511 -0.2420 -0.0078 -0.2123
10448SOL     OW32784   5.552   5.014   3.007  0.0493 -0.0669  0.2142
10448SOL    HW132785   5.584   4.956   2.939 -0.8880 -0.5110  0.1299
10448SOL    HW232786   5.482   5.064   2.965 -0.5959 -0.4022  0.8539
10449SOL     OW32787   1.297   1.529   7.197 -0.6000 -0.2593 -0.2417
10449SOL    HW132788   1.260   1.441   7.185 -0.1072 -0.3610 -1.1099
10449SOL    HW232789   1.223   1.582   7.225 -1.1307 -0.7404 -0.6907
10450SOL     OW32790   7.331   2.056   2.035 -0.2312 -0.3017 -0.1284
10450SOL    HW132791   7.287   1.984   1.992  1.3920 -1.8866  0.7245
10450SOL    HW232792   7.299   2.135   1.990 -1.2294 -1.6041 -1.8033
10451SOL     OW32793   1.447   7.025   1.777  0.1304  0.3856 -0.5680
10451SOL    HW132794   1.541   7.012   1.790  0.2244  0.0943 -1.5026
10451SOL    HW232795   1.415   7.051   1.863  0.7696 -1.2158  0.2042
10452SOL     OW32796   3.187   6.126   3.232  0.1847 -0.2256  0.1225
10452SOL    HW132797   3.271   6.169   3.215  0.3870 -0.2977  0.8769
10452SOL    HW232798   3.168   6.078   3.152  0.2905  0.7248 -0.4891
10453SOL     OW32799   7.839   1.239  11.689  0.9215 -0.0424 -0.0456
10453SOL    HW132800   7.813   1.310  11.747 -0.3893 -0.5950  0.0612
10453SOL    HW232801   7.894   1.182  11.744 -1.2435 -1.1838  1.0744
10454SOL     OW32802   7.756   6.589  10.615  0.1916 -0.1103 -0.3540
10454SOL    HW132803   7.824   6.635  10.665  0.1236 -0.7575  0.3476
10454SOL    HW232804   7.704   6.659  10.575  1.7899  0.4110 -1.6507
10455SOL     OW32805   7.123   0.262   6.299  0.3382  0.9180 -0.0435
10455SOL    HW132806   7.187   0.333   6.311  1.9981 -0.6173  0.5595
10455SOL    HW232807   7.138   0.231   6.210  0.6088  0.4015  0.1787
10456SOL     OW32808   6.102   4.063   1.707  0.3366 -0.2749 -0.7848
10456SOL    HW132809   6.170   4.094   1.767 -2.1214  0.7222  1.6986
10456SOL    HW232810   6.115   4.114   1.628  1.8747  0.5931 -0.0146
10457SOL     OW32811   5.972   4.212   7.459 -0.8834 -0.0604 -0.1346
10457SOL    HW132812   6.010   4.162   7.530 -1.0809 -0.7785 -0.5232
10457SOL    HW232813   5.976   4.303   7.488  3.1046  0.2357 -1.0082
10458SOL     OW32814   3.913   3.107   3.180 -0.7085  0.3615  0.2715
10458SOL    HW132815   3.847   3.102   3.248  1.1093  2.2406  2.3465
10458SOL    HW232816   3.922   3.201   3.161  0.5600  0.0661 -0.7673
10459SOL     OW32817   4.123   6.844   0.068  0.0089  0.5234  0.8026
10459SOL    HW132818   4.121   6.784  -0.006 -0.5052  2.9106 -1.2633
10459SOL    HW232819   4.031   6.854   0.094 -0.0343  1.2607  0.3845
10460SOL     OW32820   6.700   0.997   6.483  0.6221  0.3888  0.5328
10460SOL    HW132821   6.745   0.930   6.432  0.5412 -0.3129  1.3600
10460SOL    HW232822   6.660   1.054   6.418 -0.7371 -1.3342 -0.2046
10461SOL     OW32823   0.415   6.417   6.360 -0.1973 -0.1157 -0.0016
10461SOL    HW132824   0.379   6.490   6.310  0.1880  0.6933  0.8678
10461SOL    HW232825   0.497   6.451   6.397  1.3618 -1.7833 -1.6567
10462SOL     OW32826   7.075   5.208   4.253 -0.3016 -0.3237  0.2697
10462SOL    HW132827   7.077   5.263   4.332  0.2460 -0.8587  0.6447
10462SOL    HW232828   7.013   5.138   4.274  0.5241 -0.9819  0.6021
10463SOL     OW32829   3.616   0.702   8.280  0.0099 -1.1119  0.7272
10463SOL    HW132830   3.548   0.667   8.337 -0.2253 -0.9496  0.5489
10463SOL    HW232831   3.587   0.681   8.192  0.3790 -1.3709  0.6649
10464SOL     OW32832   5.482   5.311   0.237 -0.3654 -0.3948 -0.1947
10464SOL    HW132833   5.501   5.354   0.320 -2.0535  2.0316 -0.9504
10464SOL    HW232834   5.403   5.261   0.253  0.4952 -1.6824  0.1658
10465SOL     OW32835   2.836   5.361   6.550  0.0080 -0.1008 -0.3895
10465SOL    HW132836   2.819   5.408   6.632 -3.1110 -0.2901 -0.8005
10465SOL    HW232837   2.814   5.424   6.482  1.6042 -0.2905 -1.1350
10466SOL     OW32838   5.222   2.420   1.617  0.3626  0.1505 -0.7980
10466SOL    HW132839   5.278   2.455   1.547  2.2514 -0.3711  0.4032
10466SOL    HW232840   5.271   2.347   1.654 -1.0621 -0.2487  0.4137
10467SOL     OW32841   7.088   6.600  10.928  0.0355  0.5133  0.4336
10467SOL    HW132842   7.083   6.581  10.834 -4.1211 -1.1569  0.7919
10467SOL    HW232843   7.171   6.563  10.956  1.5935  1.4035 -2.5683
10468SOL     OW32844   2.831   4.598   9.462  0.2291  0.0461  0.0720
10468SOL    HW132845   2.903   4.659   9.478 -1.3080  2.2669 -1.1149
10468SOL    HW232846   2.804   4.571   9.550  0.6394  1.4620  0.6631
10469SOL     OW32847   7.584   7.904   0.011  0.8050 -0.0881  0.1627
10469SOL    HW132848   7.550   7.972   0.068 -1.3360 -1.5723  0.7933
10469SOL    HW232849   7.674   7.891   0.039  1.0516  1.9859  0.4584
10470SOL     OW32850   6.584   7.863   7.720 -0.1434 -0.1320 -0.2029
10470SOL    HW132851   6.665   7.901   7.755  0.2105 -1.7528  0.8765
10470SOL    HW232852   6.520   7.935   7.723  0.9564  0.8742 -0.0476
10471SOL     OW32853   7.424   2.557   5.469  0.3109  0.2253 -0.2821
10471SOL    HW132854   7.517   2.574   5.487 -0.1114  1.8506  0.5437
10471SOL    HW232855   7.392   2.512   5.547  0.1424  0.7278 -0.0583
10472SOL     OW32856   1.108   2.742   8.141  0.2762  0.3443  0.6545
10472SOL    HW132857   1.109   2.672   8.075 -0.1464 -0.1551  1.1762
10472SOL    HW232858   1.200   2.767   8.150  0.4889 -0.4465  0.7784
10473SOL     OW32859   2.926   0.780   7.136  0.1333 -0.1435  0.0670
10473SOL    HW132860   2.951   0.831   7.059  0.4672 -0.5294 -0.0808
10473SOL    HW232861   2.994   0.798   7.200 -0.8767  1.2966  0.7925
10474SOL     OW32862   4.301   5.981   3.611 -0.3523  0.2803 -0.2513
10474SOL    HW132863   4.243   5.951   3.680  0.5474  0.5850  0.6509
10474SOL    HW232864   4.330   5.901   3.567 -0.6225  0.0591 -0.0294
10475SOL     OW32865   5.414   0.374   7.448 -0.0653 -0.0622 -0.6337
10475SOL    HW132866   5.415   0.468   7.465 -0.2049 -0.0496 -0.6956
10475SOL    HW232867   5.400   0.366   7.354  0.6091 -0.1376 -0.7309
10476SOL     OW32868   6.503   2.698  10.657  0.0248  0.5068  0.1010
10476SOL    HW132869   6.539   2.615  10.625 -0.1519  0.5996 -0.3416
10476SOL    HW232870   6.490   2.751  10.578 -1.1640  0.4426  0.2336
10477SOL     OW32871   1.896   5.508   4.052  0.0726 -0.4293  0.4698
10477SOL    HW132872   1.915   5.586   4.001  0.1166  0.1536  1.3665
10477SOL    HW232873   1.801   5.502   4.052  0.0982 -1.0902 -0.6432
10478SOL     OW32874   0.055   3.693   3.272 -0.2611 -0.1364 -0.8160
10478SOL    HW132875  -0.036   3.669   3.259 -0.0298 -2.4549  1.1425
10478SOL    HW232876   0.052   3.784   3.302 -1.7233  0.4478 -2.6076
10479SOL     OW32877   7.007   3.349   1.390 -0.2552 -0.3085 -1.1188
10479SOL    HW132878   6.946   3.419   1.368 -0.8901 -0.6319 -0.4392
10479SOL    HW232879   7.018   3.300   1.308  0.0355  0.4426 -1.5459
10480SOL     OW32880   1.208   0.794   2.337 -0.4565 -0.0646 -0.0951
10480SOL    HW132881   1.247   0.876   2.367 -2.0830  0.7792 -0.1811
10480SOL    HW232882   1.161   0.760   2.413 -1.4349  0.1196 -0.6077
10481SOL     OW32883   5.210   2.190   6.315  0.1910  0.2479  0.1238
10481SOL    HW132884   5.263   2.120   6.353 -1.8637 -0.3599  2.1122
10481SOL    HW232885   5.267   2.230   6.249  2.4394 -1.4527  0.8877
10482SOL     OW32886   7.850   3.436   9.396  0.0862  0.3530 -0.2079
10482SOL    HW132887   7.778   3.448   9.457 -1.7081  0.3243 -2.1950
10482SOL    HW232888   7.871   3.525   9.366  1.0481  0.3825  0.5297
10483SOL     OW32889   7.431   5.701   4.796  0.4306 -0.0515 -0.4168
10483SOL    HW132890   7.464   5.749   4.720 -0.8039 -0.4851 -1.2480
10483SOL    HW232891   7.350   5.660   4.766  0.0131 -0.3887  1.0823
10484SOL     OW32892   1.885   7.684   3.185 -0.1662  0.4157  0.2992
10484SOL    HW132893   1.872   7.615   3.250 -1.8110  0.5955  0.2089
10484SOL    HW232894   1.880   7.639   3.100  0.8196  0.3508  0.2710
10485SOL     OW32895   2.336   7.067   7.197  0.2015  0.4789 -0.2007
10485SOL    HW132896   2.415   7.116   7.172 -0.8000  2.1839 -0.2126
10485SOL    HW232897   2.317   7.096   7.286  0.4078 -1.0743  0.3738
10486SOL     OW32898   3.142   1.081   9.129 -0.0127  0.0335  0.1615
10486SOL    HW132899   3.227   1.074   9.172 -1.3318  1.6119  3.3537
10486SOL    HW232900   3.097   1.000   9.152 -0.1438  0.1685  0.3856
10487SOL     OW32901   6.022   4.026   8.260  0.2356 -0.3622  0.1536
10487SOL    HW132902   6.060   4.094   8.315  1.7969  0.3995 -1.7174
10487SOL    HW232903   5.939   4.064   8.229  0.6457  0.3370 -0.1246
10488SOL     OW32904   5.463   7.395   9.578 -0.3574 -0.2526  0.1019
10488SOL    HW132905   5.440   7.313   9.535 -0.4147  0.0316 -0.4158
10488SOL    HW232906   5.412   7.394   9.659  1.2247 -1.7042  1.1523
10489SOL     OW32907   2.301   3.011   2.384  0.1112  0.4739  0.9284
10489SOL    HW132908   2.290   2.958   2.306  0.8210  0.7601  0.6249
10489SOL    HW232909   2.323   3.098   2.352  0.5491  0.5618  1.4412
10490SOL     OW32910   1.470   5.656   8.865  0.4478 -0.1766 -0.1148
10490SOL    HW132911   1.395   5.690   8.816  0.0289  0.1661  0.7462
10490SOL    HW232912   1.545   5.707   8.833  0.2660 -0.2774 -0.7216
10491SOL     OW32913   5.715   5.210   7.762  0.3300 -0.1086  0.1835
10491SOL    HW132914   5.773   5.145   7.800  1.1981  0.3485 -0.3233
10491SOL    HW232915   5.627   5.185   7.792  0.2335 -3.1128 -2.1398
10492SOL     OW32916   6.616   1.750   2.168 -0.2957 -0.3776  0.6045
10492SOL    HW132917   6.552   1.719   2.104  0.5941  0.9630 -1.0171
10492SOL    HW232918   6.563   1.791   2.237 -1.2988 -2.4900  1.1608
10493SOL     OW32919   1.120   7.196   3.451  0.6058  0.4347  0.2922
10493SOL    HW132920   1.209   7.170   3.476  0.6125  0.9687  0.8403
10493SOL    HW232921   1.133   7.257   3.378  0.5995 -0.8691 -0.8404
10494SOL     OW32922   5.068   6.311   2.555 -0.2499  0.0232 -0.3652
10494SOL    HW132923   5.151   6.355   2.568 -1.2591  2.3005 -1.0845
10494SOL    HW232924   5.091   6.225   2.519  1.7909  0.1670  0.4964
10495SOL     OW32925   7.653   2.669   7.950 -0.1503  0.1595  0.3662
10495SOL    HW132926   7.666   2.579   7.919 -0.0300  0.8175 -1.5625
10495SOL    HW232927   7.727   2.684   8.010  0.5274 -0.6135 -0.2553
10496SOL     OW32928   0.959   4.280   8.760  0.0732 -0.2584  0.1471
10496SOL    HW132929   0.866   4.273   8.740  0.0796 -1.6643  0.5013
10496SOL    HW232930   0.993   4.342   8.696 -0.9265 -0.4521 -0.5874
10497SOL     OW32931   1.885   1.504   8.207  0.0814  0.2670  0.2381
10497SOL    HW132932   1.809   1.456   8.174 -0.5717  1.1205  0.4558
10497SOL    HW232933   1.913   1.453   8.283  0.8400 -1.0274 -0.8623
10498SOL     OW32934   7.292   5.402   3.233 -0.8432 -0.4034  0.5809
10498SOL    HW132935   7.199   5.422   3.246 -0.9351 -1.0717  0.9791
10498SOL    HW232936   7.324   5.379   3.320 -0.1622  0.3686  0.5482
10499SOL     OW32937   5.547   2.648  10.256  0.1345 -0.0640  0.0968
10499SOL    HW132938   5.562   2.562  10.217  2.4093  0.3627 -0.0613
10499SOL    HW232939   5.550   2.709  10.181 -2.7913  0.1130 -0.0015
10500SOL     OW32940   7.434   0.237   4.947  0.3067 -0.5006 -0.4058
10500SOL    HW132941   7.511   0.241   5.005  0.2900 -0.9260 -0.3464
10500SOL    HW232942   7.431   0.322   4.904  0.5544 -0.3236 -0.0740
10501SOL     OW32943   6.328   7.120   6.579  0.0343 -0.2573  0.0065
10501SOL    HW132944   6.332   7.186   6.510 -2.8776 -0.3418 -0.3660
10501SOL    HW232945   6.415   7.080   6.579  1.0964  1.8897 -1.4289
10502SOL     OW32946   2.906   3.880   1.353  0.1427 -0.2183 -0.2188
10502SOL    HW132947   2.936   3.816   1.289 -1.5928 -0.8980 -0.3862
10502SOL    HW232948   2.855   3.829   1.416 -0.9400  0.9202 -0.1340
10503SOL     OW32949   6.196   3.177   2.197 -0.1770 -0.0064  0.2823
10503SOL    HW132950   6.165   3.268   2.199  1.4180  0.6195 -1.2054
10503SOL    HW232951   6.136   3.131   2.256 -1.8933  1.7289  0.0302
10504SOL     OW32952   6.010   3.988   2.611  0.1047 -0.0950 -0.1312
10504SOL    HW132953   6.008   4.081   2.632 -1.8793 -0.0977 -0.1269
10504SOL    HW232954   5.959   3.980   2.530 -2.1521 -1.4368  1.2934
10505SOL     OW32955   7.877   1.481   3.374 -0.4402 -0.0664  0.2699
10505SOL    HW132956   7.821   1.407   3.351 -0.3965  0.0875 -0.3772
10505SOL    HW232957   7.927   1.499   3.294 -0.1523  0.3969  0.5441
10506SOL     OW32958   1.064   5.975   6.837 -0.8148 -0.0500  0.2267
10506SOL    HW132959   1.096   5.939   6.920 -0.0471  1.5878  0.6735
10506SOL    HW232960   1.011   5.904   6.800  0.8555 -1.7471  0.9013
10507SOL     OW32961   5.652   3.855   2.602 -0.0535 -0.3960 -0.1679
10507SOL    HW132962   5.698   3.849   2.518 -2.2427  0.0878 -1.4875
10507SOL    HW232963   5.665   3.946   2.629 -0.6573 -0.1063 -0.8188
10508SOL     OW32964   5.018   2.026   6.486 -0.2612 -0.2503 -0.1043
10508SOL    HW132965   5.088   2.056   6.544 -0.3314 -1.5458  0.6932
10508SOL    HW232966   5.063   2.007   6.403 -0.2099  1.8811 -0.6070
10509SOL     OW32967   0.923   6.247   3.159  0.0574  0.1989 -0.4254
10509SOL    HW132968   0.891   6.253   3.249 -0.2769  2.3719 -0.6220
10509SOL    HW232969   0.884   6.323   3.115  2.5516  0.8910 -1.6237
10510SOL     OW32970   2.911   3.172   5.351 -0.6423 -0.2071 -0.0403
10510SOL    HW132971   2.971   3.138   5.285 -0.4563 -1.8648  0.9042
10510SOL    HW232972   2.930   3.120   5.429 -1.7295  0.8150  0.9440
10511SOL     OW32973   7.619   1.772  11.894  0.0203  0.2118  0.4263
10511SOL    HW132974   7.607   1.786  11.800  0.5442 -1.6167  0.0460
10511SOL    HW232975   7.707   1.737  11.902 -0.0307  0.3110  1.6170
10512SOL     OW32976   0.263   0.311   6.462 -0.5737 -0.2586  0.3061
10512SOL    HW132977   0.167   0.309   6.453 -0.6268 -1.9559  0.8324
10512SOL    HW232978   0.291   0.222   6.441  1.1307  0.6897 -1.7862
10513SOL     OW32979   6.174   5.703   1.742 -0.1012  0.1569  0.8384
10513SOL    HW132980   6.125   5.641   1.797  0.7134 -1.3356 -0.0568
10513SOL    HW232981   6.139   5.789   1.767 -2.0836 -0.7219  1.3173
10514SOL     OW32982   6.035   4.912  10.624 -0.1146 -0.2361 -0.5332
10514SOL    HW132983   6.054   5.005  10.610 -0.5107 -0.3578 -2.0056
10514SOL    HW232984   6.114   4.867  10.595  0.0879 -0.3777  0.2081
10515SOL     OW32985   0.322   1.658   0.941  0.0710 -0.5376 -0.0003
10515SOL    HW132986   0.250   1.607   0.978  0.5580 -1.4306 -0.2478
10515SOL    HW232987   0.395   1.644   1.002  0.0637  0.2954  0.2079
10516SOL     OW32988   3.952   0.174   1.795 -0.0042  0.2252  0.3299
10516SOL    HW132989   3.952   0.256   1.845 -1.3065 -0.0068  0.7487
10516SOL    HW232990   3.924   0.199   1.707  1.8673  0.5656 -0.2129
10517SOL     OW32991   6.528   6.280   9.406  0.0799  0.5730  0.6440
10517SOL    HW132992   6.479   6.260   9.326  1.1149  0.9257 -0.1095
10517SOL    HW232993   6.472   6.250   9.477 -1.3434  1.2038 -0.1590
10518SOL     OW32994   3.387   1.195  11.441 -0.3750  0.4663 -0.5695
10518SOL    HW132995   3.334   1.150  11.375 -0.6477 -1.2299  0.7718
10518SOL    HW232996   3.462   1.229  11.391 -0.1224 -1.5102 -1.6510
10519SOL     OW32997   5.100   7.684  10.072 -0.0740  0.1512  0.1520
10519SOL    HW132998   5.018   7.733  10.072 -1.6228 -2.2655  0.5577
10519SOL    HW232999   5.132   7.692  10.162  0.9563  2.2469 -0.3367
10520SOL     OW33000   0.829   6.696   8.660  0.5812  0.0964 -0.3205
10520SOL    HW133001   0.773   6.774   8.667 -0.2647 -0.4619 -0.7550
10520SOL    HW233002   0.864   6.700   8.571  0.6272  0.0344 -0.3047
10521SOL     OW33003   3.275   2.672   3.026  0.0789  0.2421  0.1028
10521SOL    HW133004   3.337   2.744   3.037  1.3929 -0.9747  0.8796
10521SOL    HW233005   3.189   2.714   3.031  0.7771  2.1360 -2.1568
10522SOL     OW33006   5.799   6.228   4.449  0.4776  0.6188  0.3222
10522SOL    HW133007   5.708   6.207   4.431  0.2009 -1.0759  3.1319
10522SOL    HW233008   5.849   6.165   4.397 -0.0095  0.5050 -0.0098
10523SOL     OW33009   0.781   1.390  12.166 -0.1696 -0.1815  0.0141
10523SOL    HW133010   0.776   1.379  12.071 -1.0810 -1.0847  0.1524
10523SOL    HW233011   0.775   1.301  12.201  0.8800  0.0734  0.9087
10524SOL     OW33012   0.990   2.181   1.188 -0.0508  0.2891  0.9926
10524SOL    HW133013   0.959   2.242   1.120 -0.4926 -0.9028  0.0900
10524SOL    HW233014   1.086   2.186   1.181 -0.0753 -0.6730 -0.5583
10525SOL     OW33015   1.790   4.290  11.908 -0.2777  0.4585 -0.4162
10525SOL    HW133016   1.813   4.375  11.869  0.4863  0.5471  0.2055
10525SOL    HW233017   1.719   4.257  11.852 -0.1184  1.1872 -1.0759
10526SOL     OW33018   7.433   3.121   5.381  0.2356 -0.6069 -0.5686
10526SOL    HW133019   7.372   3.111   5.308  0.4566  1.6937 -1.1667
10526SOL    HW233020   7.379   3.151   5.454  0.2097 -1.6559 -0.1398
10527SOL     OW33021   0.427   5.121   5.432  0.3560  0.2239 -0.1372
10527SOL    HW133022   0.508   5.171   5.419 -0.3908  1.1138 -1.7161
10527SOL    HW233023   0.396   5.104   5.343 -0.9490 -0.5256  0.4385
10528SOL     OW33024   6.246   5.419   2.658  0.2530 -0.0303 -0.3305
10528SOL    HW133025   6.300   5.496   2.678  0.1947  0.0785 -0.5997
10528SOL    HW233026   6.287   5.349   2.709 -0.0667  0.3099  0.4118
10529SOL     OW33027   4.226   7.552   9.710 -0.0166  0.5864 -0.1887
10529SOL    HW133028   4.170   7.567   9.786 -0.5679 -0.5491 -0.3530
10529SOL    HW233029   4.297   7.616   9.719 -0.2881  0.7252  1.0625
10530SOL     OW33030   4.397   5.477   8.801  0.3277  0.0246 -0.2746
10530SOL    HW133031   4.467   5.438   8.748  0.4427  0.4917 -0.4733
10530SOL    HW233032   4.355   5.403   8.843  0.4016 -0.3351 -0.8224
10531SOL     OW33033   5.609   6.808   9.596 -0.1740  0.3761  0.2559
10531SOL    HW133034   5.518   6.801   9.625 -0.5842 -0.6564 -1.1489
10531SOL    HW233035   5.648   6.724   9.621 -0.1351  0.0762 -0.7451
10532SOL     OW33036   3.336   0.603   2.654 -0.0881  0.1138 -0.4753
10532SOL    HW133037   3.295   0.518   2.640  0.4383  0.0186 -1.4516
10532SOL    HW233038   3.263   0.665   2.650 -0.2958 -0.1651 -1.0384
10533SOL     OW33039   0.259   6.911   5.573 -0.0550  0.3970 -0.2935
10533SOL    HW133040   0.201   6.982   5.548 -2.6929 -1.9142 -1.2235
10533SOL    HW233041   0.317   6.900   5.498 -1.0940  0.1972 -1.0906
10534SOL     OW33042   5.113   0.512   0.843  0.9102 -0.8905 -0.5466
10534SOL    HW133043   5.072   0.433   0.807 -0.0279 -0.1578 -1.1524
10534SOL    HW233044   5.133   0.566   0.766  0.2024  0.0765 -0.0714
10535SOL     OW33045   3.560   2.549   8.281  0.4637  0.6961  0.3955
10535SOL    HW133046   3.489   2.544   8.217  2.2329 -3.8191 -1.6556
10535SOL    HW233047   3.640   2.550   8.228  2.0693 -4.2475  2.1428
10536SOL     OW33048   4.129   1.698   5.924  0.0656  0.0671  0.3859
10536SOL    HW133049   4.138   1.793   5.921  0.3091  0.0328 -1.5516
10536SOL    HW233050   4.127   1.671   5.832 -0.1355 -1.7955  0.8830
10537SOL     OW33051   6.434   0.371   4.238  0.5383 -0.1342 -0.1765
10537SOL    HW133052   6.435   0.368   4.333 -0.0570 -0.4277 -0.1748
10537SOL    HW233053   6.478   0.290   4.211  1.9049  0.5707 -0.1671
10538SOL     OW33054   4.526   6.543   0.348 -0.1404 -0.6373  0.0928
10538SOL    HW133055   4.473   6.553   0.269 -0.4351 -0.8947  0.2557
10538SOL    HW233056   4.602   6.599   0.333 -0.0974 -0.8368 -0.4537
10539SOL     OW33057   6.032   5.309   6.454  0.0767  0.0464 -0.7042
10539SOL    HW133058   5.986   5.263   6.524 -0.2739 -0.5015 -1.2861
10539SOL    HW233059   5.983   5.286   6.374 -0.3850  1.7768 -0.9586
10540SOL     OW33060   0.002   4.170   9.452  0.3348  0.0099 -0.4035
10540SOL    HW133061  -0.081   4.218   9.448  0.0369 -0.4798 -0.1950
10540SOL    HW233062  -0.004   4.105   9.382  0.3796 -0.2848 -0.1358
10541SOL     OW33063   5.718   2.331  11.754 -0.6859 -0.3278 -0.0855
10541SOL    HW133064   5.650   2.264  11.768  0.5984 -1.6348  0.0988
10541SOL    HW233065   5.683   2.387  11.685 -1.8214 -1.1546 -0.2058
10542SOL     OW33066   2.432   0.694   0.803 -0.0161 -0.2474 -0.1635
10542SOL    HW133067   2.514   0.738   0.825 -0.7013  0.3818  1.2848
10542SOL    HW233068   2.447   0.603   0.829  0.2068 -0.1225  0.1546
10543SOL     OW33069   5.864   0.688   4.912 -0.6598 -0.1679 -0.2621
10543SOL    HW133070   5.955   0.662   4.921 -0.5609  0.0269 -0.6564
10543SOL    HW233071   5.838   0.716   5.000  0.6937  3.0190 -0.7390
10544SOL     OW33072   7.475   1.510  10.754 -0.7178 -0.2212 -0.0888
10544SOL    HW133073   7.529   1.431  10.750  0.9587  0.8724  0.0441
10544SOL    HW233074   7.462   1.525  10.848 -0.3761  0.0996 -0.0943
10545SOL     OW33075   2.503   6.033   1.938  0.1187  0.0679  0.2496
10545SOL    HW133076   2.426   6.038   1.995  0.4528  1.6603  0.5948
10545SOL    HW233077   2.476   5.974   1.867 -1.2555  0.2305  0.6037
10546SOL     OW33078   0.433   2.124   0.807  0.0644  0.0266 -0.0709
10546SOL    HW133079   0.353   2.124   0.859  0.3615 -0.9941  0.4072
10546SOL    HW233080   0.501   2.151   0.868  0.0673  1.1021 -0.5306
10547SOL     OW33081   5.438   6.959   4.681  0.2199  0.1751  0.3861
10547SOL    HW133082   5.513   6.978   4.624 -0.6906  0.2547 -0.8144
10547SOL    HW233083   5.420   6.867   4.666 -0.0327  0.1997  0.5445
10548SOL     OW33084   3.678   0.269   0.047  0.5156  0.3518  0.0212
10548SOL    HW133085   3.655   0.317   0.127  0.1476 -0.3481  0.3429
10548SOL    HW233086   3.729   0.331  -0.004  0.1363  1.0542  0.4800
10549SOL     OW33087   0.350   6.057  10.168  0.0672  0.3022 -0.0372
10549SOL    HW133088   0.416   6.109  10.121  1.0011 -0.3409  0.5133
10549SOL    HW233089   0.289   6.121  10.203  1.1304  1.0307  0.5265
10550SOL     OW33090   0.694   5.844   7.643  0.3292  0.3012  0.3828
10550SOL    HW133091   0.615   5.896   7.656  1.2327  1.4689  1.3381
10550SOL    HW233092   0.756   5.877   7.708  1.1535 -1.5449  0.6046
10551SOL     OW33093   6.087   5.691   8.117  0.1478 -0.2164 -0.0795
10551SOL    HW133094   6.075   5.628   8.188  0.3722 -0.1530  0.0184
10551SOL    HW233095   6.004   5.738   8.112  0.1008 -0.2819  0.0844
10552SOL     OW33096   3.558   3.576   4.241  0.3527  0.1404  0.4106
10552SOL    HW133097   3.497   3.597   4.170 -0.3446 -1.9467  0.3455
10552SOL    HW233098   3.595   3.491   4.217 -1.0266 -1.3716  3.2183
10553SOL     OW33099   5.937   5.154   2.148 -0.1386 -0.3507 -0.3517
10553SOL    HW133100   5.942   5.245   2.119 -0.8274  0.1075  0.9175
10553SOL    HW233101   5.854   5.148   2.194  0.4506 -1.3063  0.6345
10554SOL     OW33102   6.297   6.568   9.955  0.1305 -0.1314 -0.2138
10554SOL    HW133103   6.205   6.561   9.927  0.0793  0.9459 -0.3510
10554SOL    HW233104   6.294   6.556  10.050 -0.3622  1.4462 -0.0086
10555SOL     OW33105   2.555   5.717   2.018  0.3507  0.0741 -0.4827
10555SOL    HW133106   2.502   5.669   2.081 -0.6807  0.8505 -0.7323
10555SOL    HW233107   2.583   5.796   2.064  1.3379 -0.3334 -0.3465
10556SOL     OW33108   7.526   0.051   9.315  0.0589  1.1477  0.2435
10556SOL    HW133109   7.604   0.010   9.353 -1.0332  0.9633  2.4210
10556SOL    HW233110   7.506  -0.003   9.238  0.6989 -0.2582  1.0283
10557SOL     OW33111   4.093   1.298   0.156 -0.2199  0.2170  0.3329
10557SOL    HW133112   4.168   1.261   0.108 -0.8499 -0.9355  0.2013
10557SOL    HW233113   4.064   1.372   0.102  0.4252  0.2782  0.0622
10558SOL     OW33114   6.919   7.797   6.807  0.4414  0.6359 -0.6222
10558SOL    HW133115   6.875   7.839   6.733  0.0899 -1.8338 -1.9027
10558SOL    HW233116   7.012   7.813   6.793  0.3172  0.8937 -1.1385
10559SOL     OW33117   0.521   3.075   7.408 -0.0011  0.1483 -0.3359
10559SOL    HW133118   0.451   3.127   7.369 -0.9673 -0.0863  1.0197
10559SOL    HW233119   0.568   3.136   7.465 -0.2969 -0.1364  0.2204
10560SOL     OW33120   3.668   2.627  11.987  0.0136 -0.2027 -0.4506
10560SOL    HW133121   3.573   2.627  11.983  0.0012 -0.3729 -0.1932
10560SOL    HW233122   3.695   2.697  11.927 -0.2580 -0.3771 -0.7741
10561SOL     OW33123   7.274   7.539  11.801 -0.0821 -0.2641  0.2371
10561SOL    HW133124   7.187   7.556  11.762 -0.5799 -0.2241  1.3419
10561SOL    HW233125   7.325   7.502  11.728 -1.4606 -1.6827 -0.0826
10562SOL     OW33126   1.858   6.765  10.607 -0.0025 -0.4935  0.0380
10562SOL    HW133127   1.903   6.742  10.526 -1.6000  0.2875 -1.1219
10562SOL    HW233128   1.916   6.733  10.677  1.2678 -1.4389 -1.3942
10563SOL     OW33129   5.938   0.967   6.248  0.4026  0.3091 -0.0670
10563SOL    HW133130   5.887   1.001   6.322  0.7013  0.2138  0.1847
10563SOL    HW233131   5.908   1.018   6.173 -0.7386 -0.3863 -0.1004
10564SOL     OW33132   1.091   6.858   5.846  0.2241 -0.0166 -0.2133
10564SOL    HW133133   1.067   6.811   5.766  1.6863 -0.0981 -0.6353
10564SOL    HW233134   1.023   6.925   5.855  0.8093  0.9529 -2.3778
10565SOL     OW33135   2.694   0.655   4.548 -0.5248  0.0215  0.4855
10565SOL    HW133136   2.627   0.701   4.498 -0.6196  0.2936  0.8573
10565SOL    HW233137   2.763   0.720   4.560  0.2023 -0.5050 -0.6330
10566SOL     OW33138   5.811   6.440   7.157  0.5497 -0.0157  0.9113
10566SOL    HW133139   5.785   6.463   7.068 -0.8842  0.2447  1.3779
10566SOL    HW233140   5.830   6.346   7.154  1.0730  0.1019  0.2243
10567SOL     OW33141   6.526   3.596  10.057 -0.5419 -0.8011  0.6343
10567SOL    HW133142   6.598   3.647  10.020  0.1211 -1.9205  0.3016
10567SOL    HW233143   6.567   3.546  10.128 -0.6948 -2.3163 -0.2925
10568SOL     OW33144   4.607   6.295   9.835 -0.0394 -0.3561 -0.5155
10568SOL    HW133145   4.584   6.266   9.923  1.0475  1.3871  0.4023
10568SOL    HW233146   4.580   6.387   9.832  1.0947 -0.0241 -1.5430
10569SOL     OW33147   1.996   7.491   7.622  0.1859  0.6847  0.2362
10569SOL    HW133148   2.072   7.490   7.563 -0.9815 -0.1221 -1.3306
10569SOL    HW233149   1.993   7.580   7.656  0.6291  1.3329 -1.3281
10570SOL     OW33150   5.943   3.155   4.665 -0.2413  0.2089  0.5040
10570SOL    HW133151   5.957   3.222   4.732 -0.1877 -0.4666  1.1986
10570SOL    HW233152   5.919   3.077   4.716  0.4048 -0.4807 -0.2356
10571SOL     OW33153   4.459   6.528  11.844 -0.0013 -0.0440 -0.2853
10571SOL    HW133154   4.534   6.512  11.787 -0.6510  0.3814 -1.2959
10571SOL    HW233155   4.404   6.589  11.794 -1.3271 -0.8358  0.1460
10572SOL     OW33156   6.390   2.863   8.704 -0.2584  0.3814 -0.2198
10572SOL    HW133157   6.341   2.835   8.627  1.2435 -0.1681 -1.0070
10572SOL    HW233158   6.372   2.956   8.712 -0.1439  0.5200 -1.4584
10573SOL     OW33159   5.316   2.952   4.208 -0.2040 -0.1068  0.1393
10573SOL    HW133160   5.293   2.874   4.156 -0.0423  0.2034 -0.4040
10573SOL    HW233161   5.335   2.917   4.295 -2.3986 -0.4344  0.5624
10574SOL     OW33162   2.560   0.303  10.386 -0.2922 -0.3744  0.5822
10574SOL    HW133163   2.472   0.339  10.390 -0.9024 -1.8626  1.5843
10574SOL    HW233164   2.559   0.244  10.310  0.7221  1.6316 -1.1010
10575SOL     OW33165   0.947   5.434  11.149  0.3438 -0.7161 -0.1453
10575SOL    HW133166   0.974   5.501  11.086  0.4863 -1.5638 -1.0097
10575SOL    HW233167   1.027   5.386  11.168 -0.0315 -1.5850 -0.6967
10576SOL     OW33168   5.077   7.163   3.457 -0.2287  0.0616  0.4250
10576SOL    HW133169   5.034   7.225   3.516  1.1043  0.1361  1.3620
10576SOL    HW233170   5.164   7.201   3.441 -0.5663  0.0789 -1.6700
10577SOL     OW33171   1.091   2.842   6.385 -0.0246  0.5774  0.2425
10577SOL    HW133172   1.085   2.838   6.480  2.3204 -0.1918  0.4095
10577SOL    HW233173   1.071   2.934   6.363  1.1620  1.2031  1.6448
10578SOL     OW33174   5.013   6.660   3.428  0.0191  0.5058  0.2621
10578SOL    HW133175   5.043   6.667   3.519 -0.1879  0.6658  0.3200
10578SOL    HW233176   5.052   6.734   3.383  0.9864 -0.1651 -0.0305
10579SOL     OW33177   6.910   1.780   3.999 -0.0639 -0.4404 -0.5413
10579SOL    HW133178   6.869   1.860   4.032  1.4526 -0.0496  0.5316
10579SOL    HW233179   6.889   1.714   4.064 -1.8753 -1.1165 -1.7657
10580SOL     OW33180   0.293   6.283   1.660 -0.4698  0.2034  0.0346
10580SOL    HW133181   0.321   6.191   1.656  0.5672  0.4289  1.2959
10580SOL    HW233182   0.373   6.333   1.647 -0.8790  0.9223  0.2387
10581SOL     OW33183   7.740   3.256   4.225 -0.3932  0.0413  0.2888
10581SOL    HW133184   7.748   3.161   4.233 -0.5159 -0.1780 -1.6761
10581SOL    HW233185   7.647   3.274   4.243 -0.0966  0.0165  2.0945
10582SOL     OW33186   4.805   6.813   4.887  0.1887 -0.0129  0.1515
10582SOL    HW133187   4.766   6.879   4.830  0.4415 -0.2096 -0.2585
10582SOL    HW233188   4.867   6.767   4.831 -0.0504 -0.6607  0.4080
10583SOL     OW33189   1.975   1.937  10.399  0.0497 -0.1617  0.3976
10583SOL    HW133190   1.943   1.979  10.479 -0.1946 -3.1185  2.0146
10583SOL    HW233191   2.069   1.955  10.399  0.8162 -3.0997  3.5589
10584SOL     OW33192   2.729   0.114   3.634 -0.7554  0.3727  0.1050
10584SOL    HW133193   2.752   0.130   3.725 -0.7655  0.8142  0.0292
10584SOL    HW233194   2.640   0.079   3.636 -0.9464  0.8650  0.2262
10585SOL     OW33195   7.203   5.636  10.425  0.5140  0.2024 -0.2589
10585SOL    HW133196   7.296   5.647  10.447  0.6681  0.6529 -1.0876
10585SOL    HW233197   7.162   5.716  10.460  0.7744  0.9664 -1.6176
10586SOL     OW33198   1.977   1.052   0.940  0.0961 -0.5711 -0.1254
10586SOL    HW133199   1.896   1.017   0.903  0.1755 -2.2609  1.1668
10586SOL    HW233200   2.004   1.120   0.879 -0.4733 -2.2954 -2.4634
10587SOL     OW33201   4.600   1.263   4.679  0.3339 -0.3706 -0.3005
10587SOL    HW133202   4.588   1.299   4.767  1.7020  1.3580 -0.7372
10587SOL    HW233203   4.682   1.214   4.684 -1.2030 -3.0550  0.1236
10588SOL     OW33204   1.998   0.095   8.508  0.2971  0.5319  0.7092
10588SOL    HW133205   2.087   0.129   8.496 -0.0723  0.9152 -1.3747
10588SOL    HW233206   1.945   0.171   8.530  0.3006  0.4905  0.8602
10589SOL     OW33207   5.924   7.632  11.873  0.0480 -0.3593 -0.5371
10589SOL    HW133208   5.901   7.722  11.899  1.2286 -0.1075 -0.3152
10589SOL    HW233209   5.865   7.613  11.800 -0.6792  0.3462 -0.1563
10590SOL     OW33210   4.577   6.648   6.385 -0.0004 -0.1736  0.2177
10590SOL    HW133211   4.557   6.618   6.474 -0.2263 -0.3705  0.1012
10590SOL    HW233212   4.590   6.567   6.336  1.0156 -0.0546  0.2752
10591SOL     OW33213   6.386   5.167  11.252 -0.0327  0.2681 -0.4046
10591SOL    HW133214   6.379   5.237  11.188  0.6297 -0.4486 -1.2959
10591SOL    HW233215   6.367   5.087  11.202  1.0466 -0.3644  0.1511
10592SOL     OW33216   5.157   3.325  10.654 -0.1691 -0.6096  0.1758
10592SOL    HW133217   5.168   3.292  10.565  0.2087 -0.3461  0.1189
10592SOL    HW233218   5.095   3.265  10.695 -1.6842  0.2440 -0.7789
10593SOL     OW33219   5.225   3.257   1.126  0.6119  0.7433  0.0886
10593SOL    HW133220   5.220   3.176   1.176  1.8239  0.2850 -0.4876
10593SOL    HW233221   5.316   3.262   1.097  0.5364  2.2612  0.0170
10594SOL     OW33222   3.908   7.246   9.686 -0.5525  0.1132 -1.0990
10594SOL    HW133223   3.873   7.317   9.740  1.6502  0.0420  0.5717
10594SOL    HW233224   3.980   7.286   9.637  0.3926 -0.8085 -0.5135
10595SOL     OW33225   3.136   0.725   2.804  0.1336 -0.3153  0.2616
10595SOL    HW133226   3.082   0.803   2.789  2.2556  1.4726  1.3611
10595SOL    HW233227   3.136   0.713   2.899 -0.4341 -1.9406  0.0982
10596SOL     OW33228   3.690   2.694   2.945  0.3273  0.0546 -0.9523
10596SOL    HW133229   3.641   2.724   2.869  1.4529  0.0348 -1.7120
10596SOL    HW233230   3.737   2.771   2.976  1.5139 -0.3906 -1.5746
10597SOL     OW33231   3.126   5.751   5.273  0.4211  0.1077 -0.1678
10597SOL    HW133232   3.104   5.825   5.216  2.6555 -0.2200 -1.5999
10597SOL    HW233233   3.084   5.675   5.233  0.2095  0.2094 -0.1384
10598SOL     OW33234   2.710   5.325   8.440 -0.0962  0.2195  0.1797
10598SOL    HW133235   2.732   5.332   8.533  0.5700 -0.2190  0.0576
10598SOL    HW233236   2.767   5.388   8.397 -1.9156  2.0398  0.2717
10599SOL     OW33237   2.773   7.485  12.343 -0.3087  0.3511  0.5504
10599SOL    HW133238   2.854   7.534  12.330 -1.3305  1.8864 -0.3858
10599SOL    HW233239   2.801   7.400  12.378  1.6777  0.8532  0.2775
10600SOL     OW33240   2.170   5.440   9.767 -0.8530  0.5379  0.5175
10600SOL    HW133241   2.236   5.438   9.697  0.9078  0.2175  2.0871
10600SOL    HW233242   2.120   5.359   9.755  0.6697 -0.4786  0.7221
10601SOL     OW33243   2.703   2.350   3.968 -0.4545 -0.4572 -0.0075
10601SOL    HW133244   2.735   2.290   3.901 -0.3109 -0.2538 -0.1226
10601SOL    HW233245   2.719   2.304   4.051  1.0006  0.0175  0.0060
10602SOL     OW33246   7.434   5.683   3.194  0.7993 -0.4909  0.4570
10602SOL    HW133247   7.514   5.652   3.151 -0.0058 -1.9154 -0.1162
10602SOL    HW233248   7.391   5.602   3.225  0.4074  0.3555  2.2697
10603SOL     OW33249   4.774   3.087   2.794 -0.0294 -0.0331  0.1622
10603SOL    HW133250   4.799   3.128   2.877 -0.8152 -0.8817  0.8454
10603SOL    HW233251   4.771   3.159   2.732  0.9291  0.5656  0.7867
10604SOL     OW33252   3.200   2.140   1.502  0.0294  0.1400  0.3787
10604SOL    HW133253   3.199   2.062   1.447  1.8738  0.4211 -0.1318
10604SOL    HW233254   3.233   2.210   1.445  0.2226  0.8553  1.3307
10605SOL     OW33255   6.913   2.666   5.316 -0.0061 -0.3510  0.1851
10605SOL    HW133256   7.003   2.681   5.345  0.0303  0.3739 -0.2843
10605SOL    HW233257   6.921   2.625   5.230 -0.1271  0.0024  0.0046
10606SOL     OW33258   5.281   2.504   4.619 -0.2855  0.0381  0.3974
10606SOL    HW133259   5.285   2.421   4.571 -3.7491  0.3216 -0.6425
10606SOL    HW233260   5.351   2.497   4.684 -1.5870 -4.5651  1.6708
10607SOL     OW33261   2.104   5.219   8.810  0.4006  0.3517  0.0594
10607SOL    HW133262   2.025   5.168   8.826  0.9596 -0.6825 -0.3410
10607SOL    HW233263   2.129   5.252   8.897  0.7369 -1.1728  0.5779
10608SOL     OW33264   7.464   2.718   9.292 -0.3500 -0.5760  0.8803
10608SOL    HW133265   7.473   2.699   9.198 -2.6579 -0.5050  0.5917
10608SOL    HW233266   7.534   2.667   9.333  0.7309 -0.5881 -0.8628
10609SOL     OW33267   7.798   5.482   6.720 -0.0349  0.0345 -0.2302
10609SOL    HW133268   7.832   5.448   6.802 -0.3025 -1.6769 -0.7902
10609SOL    HW233269   7.704   5.489   6.733 -0.1495 -0.7633 -0.5355
10610SOL     OW33270   2.991   1.113   0.260 -0.4853 -0.2668 -0.0269
10610SOL    HW133271   3.075   1.068   0.259  0.6459  1.6717  1.4163
10610SOL    HW233272   2.953   1.096   0.174  0.3405 -2.9703  0.0340
10611SOL     OW33273   6.252   4.396   9.097 -0.0067 -0.2130  0.7759
10611SOL    HW133274   6.244   4.451   9.019  0.1633 -2.7649 -1.1756
10611SOL    HW233275   6.232   4.454   9.170 -2.2083  1.8363 -1.2856
10612SOL     OW33276   3.566   5.285  10.902 -0.4294  0.1835 -0.1506
10612SOL    HW133277   3.533   5.216  10.961  1.0967 -1.4840 -1.1380
10612SOL    HW233278   3.492   5.303  10.843 -0.1100 -2.6679 -1.6194
10613SOL     OW33279   1.707   2.596   1.494  0.0511  0.1060 -0.3083
10613SOL    HW133280   1.753   2.636   1.567 -1.1376  1.3493 -0.1990
10613SOL    HW233281   1.636   2.547   1.535  0.0641 -0.1396 -0.5742
10614SOL     OW33282   1.907   4.985   8.190 -0.5734  0.2028  0.1265
10614SOL    HW133283   1.972   5.043   8.150 -0.4104  0.1013  0.2410
10614SOL    HW233284   1.925   4.990   8.284 -1.8108  1.4795  0.3233
10615SOL     OW33285   5.432   2.747   1.265  0.0101 -0.1210  0.3093
10615SOL    HW133286   5.398   2.836   1.255  0.7372  0.3805  1.9521
10615SOL    HW233287   5.378   2.694   1.206 -2.0740  0.9991  1.0848
10616SOL     OW33288   3.277   1.806   6.123 -0.5104  0.0928  0.4814
10616SOL    HW133289   3.357   1.827   6.075 -1.6432  0.8883 -1.1504
10616SOL    HW233290   3.249   1.721   6.089 -0.5815  0.0090  0.7462
10617SOL     OW33291   4.175   6.409   0.765 -0.3440  0.4780  0.3646
10617SOL    HW133292   4.215   6.417   0.678 -2.5564  1.9033 -0.6205
10617SOL    HW233293   4.234   6.457   0.823  0.2344  1.1270 -0.7262
10618SOL     OW33294   1.759   3.681   0.730  0.5392  0.1714  0.1418
10618SOL    HW133295   1.756   3.604   0.787  0.1444 -0.9753 -1.3813
10618SOL    HW233296   1.669   3.715   0.730  0.4995  0.0631  0.0356
10619SOL     OW33297   1.693   7.595   6.628 -0.3141 -0.0782  0.3616
10619SOL    HW133298   1.690   7.502   6.609 -0.1618  0.3209 -1.8574
10619SOL    HW233299   1.606   7.616   6.662 -0.2526 -1.0696  1.1612
10620SOL     OW33300   0.455   1.965   5.096 -0.1604  0.4562 -0.0091
10620SOL    HW133301   0.486   2.013   5.019 -0.5877 -0.2238 -0.6193
10620SOL    HW233302   0.489   1.876   5.085  0.2598  0.4968  0.8915
10621SOL     OW33303   6.993   6.566   2.276  0.0164  0.2784 -0.2483
10621SOL    HW133304   6.929   6.610   2.332  0.2499 -0.0385  0.2718
10621SOL    HW233305   7.039   6.505   2.334 -0.6496 -1.0360 -1.0508
10622SOL     OW33306   2.454   0.399   3.987  0.5780 -0.0957 -0.1752
10622SOL    HW133307   2.363   0.428   3.989  0.3989 -0.6250  2.1870
10622SOL    HW233308   2.505   0.480   3.983  0.0521  0.2050 -1.3520
10623SOL     OW33309   6.905   7.486   4.983 -0.3131 -0.0808 -0.6814
10623SOL    HW133310   6.814   7.516   4.992 -1.0113 -1.9614 -0.9585
10623SOL    HW233311   6.950   7.524   5.059 -1.7753 -0.6121  0.5225
10624SOL     OW33312   2.175   4.998   7.934 -0.3102  0.3184 -0.4949
10624SOL    HW133313   2.197   4.913   7.973 -1.9359  0.3090  0.5094
10624SOL    HW233314   2.125   4.976   7.855  1.1771  0.3600 -1.4885
10625SOL     OW33315   1.156   4.894  11.048 -0.0633 -0.2764 -0.2775
10625SOL    HW133316   1.232   4.943  11.018 -0.8217  1.1363  0.0072
10625SOL    HW233317   1.141   4.925  11.137 -0.8704 -0.6606 -0.2688
10626SOL     OW33318   6.491   1.672  10.824  0.3069  0.2214  0.0316
10626SOL    HW133319   6.563   1.716  10.868  0.6199 -0.7133  0.4884
10626SOL    HW233320   6.476   1.724  10.745 -0.9738  2.5592  1.6784
10627SOL     OW33321   0.693   0.165   2.976 -0.1380 -0.7910 -0.1690
10627SOL    HW133322   0.717   0.117   2.897  0.2616 -1.5476  0.4011
10627SOL    HW233323   0.766   0.224   2.993  0.1238 -1.1690  0.0478
10628SOL     OW33324   7.761   0.506   6.667  0.7030 -0.2747  0.5676
10628SOL    HW133325   7.818   0.429   6.659  0.9867 -0.2262  1.9970
10628SOL    HW233326   7.699   0.483   6.736 -1.2535 -0.4502 -1.1602
10629SOL     OW33327   0.464   3.393   9.196 -0.3898  0.8304  0.0998
10629SOL    HW133328   0.399   3.325   9.214 -1.2928  1.5991 -0.1472
10629SOL    HW233329   0.446   3.461   9.262 -0.2649  1.3318 -0.3735
10630SOL     OW33330   5.868   6.029   5.268 -0.6510  0.1086 -0.0349
10630SOL    HW133331   5.899   6.108   5.312  0.0047  0.5206 -1.1863
10630SOL    HW233332   5.907   5.957   5.317 -1.5467  0.4780  1.2444
10631SOL     OW33333   0.765   5.364   3.170 -0.5124  0.2284 -0.3439
10631SOL    HW133334   0.830   5.393   3.106 -1.1721  1.0300 -0.6643
10631SOL    HW233335   0.706   5.439   3.181  1.2727  1.2980  3.5301
10632SOL     OW33336   5.514   4.698   2.124  0.2684 -0.0413  0.2357
10632SOL    HW133337   5.535   4.641   2.050  0.9759 -0.1627  0.5214
10632SOL    HW233338   5.424   4.674   2.148  0.4690 -0.8516  0.1851
10633SOL     OW33339   5.852   7.423   4.020  0.2483  0.0651 -0.2173
10633SOL    HW133340   5.873   7.514   4.037  1.5276 -0.3816  0.6836
10633SOL    HW233341   5.830   7.386   4.106  1.0803 -0.8012 -0.3631
10634SOL     OW33342   2.042   3.827   5.586 -0.1367  0.1650  0.4072
10634SOL    HW133343   2.039   3.909   5.537 -0.0215  0.9434  1.6583
10634SOL    HW233344   2.032   3.853   5.678 -0.8451 -1.2854  0.7767
10635SOL     OW33345   6.991   2.021   4.795 -0.0705 -0.3032 -0.6489
10635SOL    HW133346   6.986   1.935   4.753  0.9084 -0.2188 -0.9523
10635SOL    HW233347   6.963   2.083   4.727  0.0822 -0.3002 -0.7086
10636SOL     OW33348   4.768   6.624   1.780  0.1666 -0.0090 -0.1340
10636SOL    HW133349   4.791   6.552   1.721 -1.7968 -0.6254 -0.2148
10636SOL    HW233350   4.753   6.699   1.722  1.2848  0.2468 -0.1228
10637SOL     OW33351   5.152   1.704   7.440 -0.0269 -0.2251  0.1403
10637SOL    HW133352   5.224   1.740   7.389  0.3212 -1.5124 -0.3113
10637SOL    HW233353   5.134   1.619   7.400  0.3129 -1.3389  2.1861
10638SOL     OW33354   5.525   6.636   3.341  0.0282 -0.6141  0.4331
10638SOL    HW133355   5.567   6.666   3.260 -3.1571  0.7344 -0.8828
10638SOL    HW233356   5.477   6.557   3.315  1.7995 -2.3128  1.9732
10639SOL     OW33357   1.474   6.112   2.895  0.2418  0.9169  0.3011
10639SOL    HW133358   1.397   6.123   2.839  0.9001  2.1327 -0.4134
10639SOL    HW233359   1.528   6.048   2.849  0.1821  0.9193  0.2276
10640SOL     OW33360   2.822   2.916  10.571  0.1651 -0.1215 -0.0261
10640SOL    HW133361   2.832   2.938  10.664 -0.6536 -0.3695  0.1258
10640SOL    HW233362   2.790   2.996  10.530  1.8442  0.4170 -0.3638
10641SOL     OW33363   3.465   4.850   1.785  0.1749 -0.0675  0.0141
10641SOL    HW133364   3.508   4.775   1.826  1.4344  1.4379  1.6042
10641SOL    HW233365   3.514   4.866   1.704  0.0803 -0.7652 -0.1840
10642SOL     OW33366   1.272   5.670   1.148  0.6547 -0.4324 -0.3443
10642SOL    HW133367   1.204   5.679   1.082  0.9132  1.5908 -0.4044
10642SOL    HW233368   1.250   5.590   1.196 -2.4332  0.7389  0.3906
10643SOL     OW33369   5.150   3.094   0.471 -0.0213 -0.7531  0.1783
10643SOL    HW133370   5.239   3.105   0.505  0.1066 -3.0323  0.7448
10643SOL    HW233371   5.162   3.065   0.381 -0.2879  1.2190 -0.5399
10644SOL     OW33372   7.293   6.111   2.864  0.1226  0.2996 -0.0726
10644SOL    HW133373   7.256   6.104   2.952  0.6613  0.9295  0.2064
10644SOL    HW233374   7.301   6.020   2.834  0.7456  0.0287  0.8697
10645SOL     OW33375   1.484   5.618   2.590  0.2241 -0.0302  0.3653
10645SOL    HW133376   1.576   5.630   2.566  0.2217 -1.5871 -0.5470
10645SOL    HW233377   1.473   5.524   2.600 -0.5525  0.3019  3.6604
10646SOL     OW33378   6.875   2.471   3.637 -0.6882  0.1150  0.0837
10646SOL    HW133379   6.932   2.547   3.652 -0.5708 -0.0357  0.3927
10646SOL    HW233380   6.890   2.449   3.545  0.4766 -0.5113  0.4046
10647SOL     OW33381   3.660   5.316   3.928  0.4332  0.4095  0.1001
10647SOL    HW133382   3.752   5.341   3.933  1.1441 -1.8746 -0.3093
10647SOL    HW233383   3.660   5.221   3.941 -1.9938  0.4840  1.2095
10648SOL     OW33384   7.579   7.502   5.233 -0.3116 -0.0301  0.5061
10648SOL    HW133385   7.539   7.455   5.305 -0.8727 -1.5659 -0.7468
10648SOL    HW233386   7.589   7.437   5.164  0.8195  1.2223 -0.5834
10649SOL     OW33387   6.721   4.080   3.274 -0.0461 -0.1820  0.4432
10649SOL    HW133388   6.728   4.012   3.342 -0.5897  0.0608  0.7502
10649SOL    HW233389   6.650   4.136   3.304  0.4382  0.5626  0.2212
10650SOL     OW33390   4.610   3.973   5.089 -0.0263  0.3046  0.1529
10650SOL    HW133391   4.557   3.908   5.135  2.2871 -1.2987  0.7326
10650SOL    HW233392   4.647   3.925   5.015  0.6808  1.3362 -0.1790
10651SOL     OW33393   1.351   1.902   0.143 -0.5001  0.1602  0.5000
10651SOL    HW133394   1.303   1.876   0.064 -0.4640  0.7443  0.2843
10651SOL    HW233395   1.430   1.848   0.142  0.8566  2.0248 -1.3211
10652SOL     OW33396   5.246   3.863   8.319 -0.4220  0.1676  0.0432
10652SOL    HW133397   5.314   3.926   8.343 -1.5276  0.5111  2.6987
10652SOL    HW233398   5.276   3.780   8.357 -1.4856  0.3590  1.3776
10653SOL     OW33399   4.663   2.926  10.571 -0.5578  0.4226  0.1693
10653SOL    HW133400   4.721   2.881  10.632  1.0572  0.5681 -1.2012
10653SOL    HW233401   4.590   2.865  10.557  0.7654 -1.0985 -0.3867
10654SOL     OW33402   2.926   5.394   3.403  0.2271 -0.3095  0.4601
10654SOL    HW133403   3.014   5.408   3.368  0.0095  0.2415  0.1213
10654SOL    HW233404   2.881   5.343   3.336  0.4384 -1.0532  0.8647
10655SOL     OW33405   2.645   7.370   2.082 -0.1384 -0.2847 -0.4665
10655SOL    HW133406   2.579   7.437   2.066  0.2426  0.5325  1.1484
10655SOL    HW233407   2.658   7.371   2.177  1.2244 -1.3548 -0.6040
10656SOL     OW33408   6.065   5.310   2.473  0.0889  0.7168  0.0210
10656SOL    HW133409   5.980   5.341   2.504 -0.3506  0.4807 -0.9181
10656SOL    HW233410   6.127   5.336   2.542 -0.5166  2.1152  0.0651
10657SOL     OW33411   2.071   6.971   4.278  0.3448 -0.3391  0.4337
10657SOL    HW133412   2.105   7.047   4.231 -0.0289 -0.5797 -0.2372
10657SOL    HW233413   2.107   6.896   4.231 -1.3570 -0.6056 -0.5022
10658SOL     OW33414   6.151   5.536   6.531  0.2308 -0.2555 -0.1165
10658SOL    HW133415   6.094   5.608   6.505 -1.1480 -0.5735  1.7539
10658SOL    HW233416   6.104   5.457   6.504  0.2975 -0.5007  0.4661
10659SOL     OW33417   3.719   2.498   3.397 -0.8842  0.0245 -0.0026
10659SOL    HW133418   3.762   2.542   3.471 -1.2850  3.3219 -1.5357
10659SOL    HW233419   3.779   2.428   3.372  2.6992  3.0255 -0.6560
10660SOL     OW33420   1.151   7.695   2.233  0.2536 -0.1908 -0.0525
10660SOL    HW133421   1.128   7.782   2.198 -3.3386 -1.4419 -1.1786
10660SOL    HW233422   1.143   7.705   2.328 -2.8554  0.1622 -0.2551
10661SOL     OW33423   7.532   7.251   7.882  0.1338 -0.2199  0.3604
10661SOL    HW133424   7.491   7.312   7.821 -0.3572 -0.4059  0.4919
10661SOL    HW233425   7.580   7.307   7.944 -0.1180  0.0207  0.3417
10662SOL     OW33426   0.868   7.921  11.515  0.0577  0.1782  0.0825
10662SOL    HW133427   0.897   7.933  11.605  2.1973  0.6111 -0.6257
10662SOL    HW233428   0.882   8.006  11.474 -1.9427  0.3254 -0.4432
10663SOL     OW33429   2.069   4.901   1.113 -0.1208 -0.2942 -0.0111
10663SOL    HW133430   2.109   4.976   1.070  0.2215  0.0945  0.9508
10663SOL    HW233431   2.017   4.858   1.045 -1.9219  1.9298 -0.1488
10664SOL     OW33432   4.192   5.839   4.724 -0.1152  0.1588 -0.5859
10664SOL    HW133433   4.265   5.790   4.761  0.1428  0.1585 -1.0756
10664SOL    HW233434   4.120   5.826   4.785 -0.0914 -0.9387 -0.7852
10665SOL     OW33435   2.006   3.469  11.609  0.2308 -0.0601 -0.1405
10665SOL    HW133436   2.056   3.435  11.534  0.9145  1.3689 -0.3708
10665SOL    HW233437   1.942   3.529  11.569 -0.9416 -1.0051  0.2518
10666SOL     OW33438   3.432   0.919   3.718  0.2856  0.2409 -0.5301
10666SOL    HW133439   3.443   1.006   3.757 -0.9697 -0.0804  0.6041
10666SOL    HW233440   3.522   0.888   3.702  0.7593  1.3812 -0.1349
10667SOL     OW33441   5.023   6.720  11.461 -0.1777  0.4331  0.0806
10667SOL    HW133442   4.966   6.718  11.538  1.5709  1.1692  1.4843
10667SOL    HW233443   5.049   6.812  11.453  1.2221  0.0382 -0.1582
10668SOL     OW33444   7.177   4.416   7.829 -0.2676  0.0052  0.5289
10668SOL    HW133445   7.246   4.472   7.792  0.5560 -1.2099  0.1741
10668SOL    HW233446   7.142   4.467   7.903  2.2280 -0.0428  1.8483
10669SOL     OW33447   6.765   1.486  11.839  0.1885  0.2198 -0.3298
10669SOL    HW133448   6.826   1.485  11.766  0.5186  0.1275 -0.0567
10669SOL    HW233449   6.761   1.395  11.869 -0.8240  0.0512 -0.9495
10670SOL     OW33450   7.566   0.341   5.479  0.0088  0.3682  0.6542
10670SOL    HW133451   7.570   0.432   5.511  0.9007  0.1189  1.2803
10670SOL    HW233452   7.591   0.288   5.554  0.1268 -0.3629  0.1116
10671SOL     OW33453   3.573   7.235   9.119 -0.4459  0.0444  0.2460
10671SOL    HW133454   3.481   7.251   9.138 -0.2091  1.7822  0.0807
10671SOL    HW233455   3.621   7.284   9.185  0.3645 -0.2255 -0.1231
10672SOL     OW33456   5.606   6.032   5.882  0.2787  0.0360  0.1174
10672SOL    HW133457   5.597   5.993   5.795 -3.4213  0.0870  0.3235
10672SOL    HW233458   5.534   5.994   5.933  0.4207  2.3335  2.2337
10673SOL     OW33459   5.867   6.092   7.133  0.1971 -0.1305  0.3243
10673SOL    HW133460   5.772   6.084   7.124  0.3487 -0.9716 -0.7524
10673SOL    HW233461   5.903   6.023   7.076  1.4401 -0.6837  1.7188
10674SOL     OW33462   3.396   1.347   4.826  0.2381  0.4758 -0.4428
10674SOL    HW133463   3.443   1.323   4.746  0.3142 -0.5685 -0.0877
10674SOL    HW233464   3.457   1.406   4.872  0.9978 -0.4468 -0.2364
10675SOL     OW33465   6.092   5.068   2.616  0.2715 -0.6811 -0.1311
10675SOL    HW133466   6.065   5.120   2.540 -1.6417  0.4828  1.2475
10675SOL    HW233467   6.186   5.083   2.623  0.0796  1.1711 -0.8425
10676SOL     OW33468   3.033   1.514   0.396  0.4107 -0.2631  0.1879
10676SOL    HW133469   3.112   1.544   0.351  0.9412  0.1073  1.3322
10676SOL    HW233470   2.973   1.588   0.389  0.3858 -0.3117 -0.1437
10677SOL     OW33471   7.827   1.470   1.021  0.1806  0.0936  0.8185
10677SOL    HW133472   7.760   1.528   0.983  0.4089 -0.2754 -0.1763
10677SOL    HW233473   7.818   1.389   0.972  3.6732  1.1009 -1.9045
10678SOL     OW33474   2.622   3.467   5.167  0.0557  0.0164  0.5455
10678SOL    HW133475   2.572   3.418   5.102  1.4053 -1.4064  0.5345
10678SOL    HW233476   2.684   3.519   5.116 -0.7886  1.1124  0.5987
10679SOL     OW33477   1.126   2.319   6.284  0.1968  0.4516 -0.4293
10679SOL    HW133478   1.101   2.370   6.207  0.7932 -0.6723 -1.3867
10679SOL    HW233479   1.054   2.331   6.345 -0.9046  0.3036 -1.6646
10680SOL     OW33480   4.534   6.604   8.388  0.4168  0.0065  0.8169
10680SOL    HW133481   4.590   6.559   8.325 -0.0684 -0.4989  0.7389
10680SOL    HW233482   4.477   6.659   8.335  0.8618  0.5590  0.8989
10681SOL     OW33483   3.750   5.207   4.553 -0.4657 -0.1805 -0.4488
10681SOL    HW133484   3.705   5.271   4.499  0.4556 -1.5054 -2.9444
10681SOL    HW233485   3.792   5.148   4.491  0.4515 -1.9969  1.7386
10682SOL     OW33486   1.647   1.423   4.858 -0.5837  0.1008 -0.1358
10682SOL    HW133487   1.645   1.452   4.950  0.2834 -2.2573  0.6941
10682SOL    HW233488   1.568   1.460   4.819 -0.1245  2.5678  1.0738
10683SOL     OW33489   4.140   4.266   3.224 -0.2486 -0.4312 -0.4774
10683SOL    HW133490   4.206   4.284   3.291  1.8742 -0.5649 -2.4198
10683SOL    HW233491   4.057   4.289   3.266  1.0230  0.1076  1.9520
10684SOL     OW33492   3.375   5.439   7.545 -0.3040  0.5860  0.2442
10684SOL    HW133493   3.325   5.476   7.617 -1.2002  0.7436 -0.4418
10684SOL    HW233494   3.357   5.345   7.549  0.4096  0.4610  0.7911
10685SOL     OW33495   1.335   0.817   8.442  0.2864  0.3720 -0.7764
10685SOL    HW133496   1.349   0.723   8.450  0.1032  0.4111  0.1523
10685SOL    HW233497   1.406   0.856   8.493  0.7529  0.7637 -1.7016
10686SOL     OW33498   7.925   5.452   6.964 -0.3160  0.2437 -0.0444
10686SOL    HW133499   7.896   5.422   7.050 -0.0171 -0.7214 -0.2668
10686SOL    HW233500   7.998   5.511   6.983  0.7486 -1.1346  0.3352
10687SOL     OW33501   7.121   4.251   8.148  0.2128 -0.3677  0.0359
10687SOL    HW133502   7.103   4.165   8.186  1.4762 -1.4719 -1.7419
10687SOL    HW233503   7.212   4.246   8.119  1.0520  2.3471  1.8032
10688SOL     OW33504   7.403   5.737   0.660 -0.2769 -0.3761  0.0599
10688SOL    HW133505   7.482   5.757   0.609  0.1189  0.7540  1.0581
10688SOL    HW233506   7.385   5.645   0.641  0.3811 -0.2337 -1.3781
10689SOL     OW33507   2.154   4.421   0.502  0.1097 -0.3817 -0.2799
10689SOL    HW133508   2.195   4.481   0.439 -3.2001  0.9613 -1.3623
10689SOL    HW233509   2.128   4.477   0.575 -0.3843 -1.0256  0.0444
10690SOL     OW33510   1.908   6.621   5.564  0.1417  0.1676 -0.4646
10690SOL    HW133511   1.903   6.531   5.531 -1.4313 -0.0393  0.2063
10690SOL    HW233512   1.822   6.658   5.544  0.7407  1.5044 -0.6460
10691SOL     OW33513   2.523   0.491   8.908  0.2941  0.1439  0.2962
10691SOL    HW133514   2.490   0.413   8.953  0.0492 -0.4388 -0.8528
10691SOL    HW233515   2.493   0.564   8.962 -0.5612 -0.5049  0.7247
10692SOL     OW33516   2.066   2.770   8.799  0.0652 -0.5377  0.3000
10692SOL    HW133517   1.998   2.824   8.758  0.6284  0.9949  1.3012
10692SOL    HW233518   2.092   2.708   8.731 -0.8454  0.2335 -0.7809
10693SOL     OW33519   1.861   4.848   3.077 -0.4825  0.2454 -0.3866
10693SOL    HW133520   1.791   4.789   3.105 -0.9830  0.7041 -0.6370
10693SOL    HW233521   1.833   4.877   2.990  1.0664 -1.2188 -1.4291
10694SOL     OW33522   2.887   4.732  12.157  0.6035  0.5815  0.1610
10694SOL    HW133523   2.974   4.765  12.177  0.5362  0.9651 -0.1581
10694SOL    HW233524   2.901   4.644  12.123  1.0167  1.2206 -1.4207
10695SOL     OW33525   1.688   4.317   9.426 -0.4353 -0.3225  0.0570
10695SOL    HW133526   1.674   4.411   9.435 -3.0302 -0.4876 -1.2354
10695SOL    HW233527   1.712   4.287   9.514 -0.7015  1.3750  0.7315
10696SOL     OW33528   4.565   7.223  11.671 -0.1290  0.2489  0.5407
10696SOL    HW133529   4.654   7.256  11.664  0.2056 -0.7851 -0.3520
10696SOL    HW233530   4.513   7.283  11.618  0.0935  0.6408  0.7620
10697SOL     OW33531   6.859   7.339   8.155 -0.3498  0.0260  0.4136
10697SOL    HW133532   6.883   7.431   8.154  1.0346 -0.2632 -2.0788
10697SOL    HW233533   6.909   7.301   8.228 -0.8678  1.1778  1.3975
10698SOL     OW33534   7.316   0.651   1.377  0.9804  0.6565 -0.2022
10698SOL    HW133535   7.368   0.719   1.418  0.0841  2.5296 -2.0074
10698SOL    HW233536   7.337   0.656   1.284 -2.3019  1.5340 -1.0343
10699SOL     OW33537   1.010   4.638   3.849 -0.0921  0.4919  0.1593
10699SOL    HW133538   0.950   4.677   3.912  0.0606  2.7513 -1.0318
10699SOL    HW233539   1.097   4.667   3.878  0.2233 -0.6342  0.3913
10700SOL     OW33540   6.000   0.339   6.805 -0.5663  0.2052 -0.3159
10700SOL    HW133541   6.041   0.403   6.863 -0.0855 -1.2156  0.9862
10700SOL    HW233542   5.911   0.372   6.791 -0.5606  0.7759  0.9198
10701SOL     OW33543   4.440   5.489   6.948 -0.2064  0.4302 -0.3410
10701SOL    HW133544   4.404   5.415   6.899  1.0165 -0.9800  0.7901
10701SOL    HW233545   4.525   5.506   6.907  0.2689  0.0581  0.4602
10702SOL     OW33546   4.128   1.085   6.305  0.0462  0.2613 -0.6091
10702SOL    HW133547   4.080   1.090   6.388 -0.4388 -1.5437 -0.7553
10702SOL    HW233548   4.073   1.134   6.243  0.0691  1.0254 -0.0378
10703SOL     OW33549   7.872   3.265   7.729 -0.4582  0.1141 -0.2858
10703SOL    HW133550   7.938   3.294   7.666  0.2412  1.1266  0.8637
10703SOL    HW233551   7.897   3.176   7.752  1.3175  0.8993  1.0827
10704SOL     OW33552   3.345   5.115   1.688 -0.5202  0.8198  0.3844
10704SOL    HW133553   3.253   5.107   1.665 -0.6108  0.0489  0.9713
10704SOL    HW233554   3.367   5.031   1.728  0.8438  0.4125 -1.1038
10705SOL     OW33555   0.168   4.214   2.123 -0.4297 -0.3671  0.5906
10705SOL    HW133556   0.227   4.289   2.110  0.6198 -1.1355  0.7351
10705SOL    HW233557   0.161   4.174   2.036 -1.3343  0.1354  0.4259
10706SOL     OW33558   2.673   7.172   0.294  0.1174 -0.2109  0.4170
10706SOL    HW133559   2.733   7.139   0.362  1.2001 -1.0630 -0.8949
10706SOL    HW233560   2.730   7.189   0.219 -1.0050  1.0640 -0.1778
10707SOL     OW33561   1.536   6.123   4.350 -0.1531 -0.0669 -0.2412
10707SOL    HW133562   1.450   6.133   4.309  0.0622  1.0483 -0.4553
10707SOL    HW233563   1.560   6.032   4.332 -1.1579 -0.3121 -0.4271
10708SOL     OW33564   6.480   6.566   2.900 -0.1175 -0.6121 -0.0721
10708SOL    HW133565   6.500   6.579   2.807 -1.7698  0.6063 -0.3102
10708SOL    HW233566   6.442   6.649   2.928  2.8409  0.1132  2.4704
10709SOL     OW33567   0.633   7.175   4.556 -0.0091 -0.3448  0.3879
10709SOL    HW133568   0.724   7.152   4.539  0.1590  0.4498  0.1702
10709SOL    HW233569   0.636   7.222   4.640  0.1133  1.5690 -0.6247
10710SOL     OW33570   1.583   6.574   1.741  0.0010  0.6644  0.0163
10710SOL    HW133571   1.605   6.653   1.690 -1.4783  0.9890 -0.1537
10710SOL    HW233572   1.605   6.501   1.684  0.1931  0.9786 -0.3146
10711SOL     OW33573   1.783   4.722   5.009  0.1972 -0.3924 -0.3553
10711SOL    HW133574   1.827   4.750   5.090  0.3119  2.6544 -1.3546
10711SOL    HW233575   1.854   4.696   4.951  0.4627  1.1797 -0.7711
10712SOL     OW33576   5.642   5.340   7.197  0.5840 -0.3308  0.7190
10712SOL    HW133577   5.732   5.333   7.165 -0.1030 -1.6933 -1.0483
10712SOL    HW233578   5.596   5.390   7.130 -0.0143  0.3637  1.6145
10713SOL     OW33579   1.655   4.150  12.135  0.0082 -0.1914  0.2918
10713SOL    HW133580   1.699   4.146  12.050 -0.4996  0.3459  0.0038
10713SOL    HW233581   1.567   4.116  12.118  0.5633 -2.1685  1.0549
10714SOL     OW33582   1.173   6.224   5.052  0.0464 -0.0060 -0.2971
10714SOL    HW133583   1.131   6.281   5.117  1.6197  0.3686  0.4350
10714SOL    HW233584   1.175   6.138   5.094  0.0151 -0.0233 -0.3315
10715SOL     OW33585   3.468   2.032   9.033 -0.4905 -0.8128  0.2999
10715SOL    HW133586   3.409   2.084   8.978  1.1975  0.9900  0.0849
10715SOL    HW233587   3.523   2.097   9.077 -0.0422 -2.3391  2.0998
10716SOL     OW33588   6.493   0.114  10.289 -0.4758 -0.5574  0.2652
10716SOL    HW133589   6.536   0.161  10.360  1.7473  0.8434 -1.8730
10716SOL    HW233590   6.428   0.175  10.256  1.9367  0.9433 -2.0571
10717SOL     OW33591   4.933   5.303   8.960 -0.3461  0.2692 -0.3952
10717SOL    HW133592   4.936   5.218   8.916 -0.2085  0.9771 -1.8026
10717SOL    HW233593   5.015   5.346   8.935 -0.4100  0.8165  0.3113
10718SOL     OW33594   7.555   3.763   8.725  0.2390 -0.3930 -0.4972
10718SOL    HW133595   7.583   3.798   8.640 -1.1525 -0.5316 -1.0434
10718SOL    HW233596   7.503   3.834   8.764  1.3870 -0.0867  0.5509
10719SOL     OW33597   6.175   7.696   8.968 -0.2328  0.2703 -0.0075
10719SOL    HW133598   6.178   7.611   8.925  0.3449  0.0180  0.5137
10719SOL    HW233599   6.250   7.695   9.028  0.3643  1.5148 -0.6834
10720SOL     OW33600   1.133   4.817  10.466 -0.5550 -0.1549  0.4672
10720SOL    HW133601   1.111   4.883  10.531  0.8163  0.4530  0.3639
10720SOL    HW233602   1.194   4.862  10.407 -1.3433 -0.8473 -0.9308
10721SOL     OW33603   7.024   6.210   4.787  0.1775  0.3456 -0.1942
10721SOL    HW133604   7.001   6.295   4.826  2.0381  1.4912 -1.4635
10721SOL    HW233605   7.115   6.220   4.759  1.2426 -2.8329  1.6095
10722SOL     OW33606   5.284   0.162   3.655 -0.1855 -0.1603  0.7794
10722SOL    HW133607   5.318   0.120   3.576 -0.3669 -0.8271  1.0563
10722SOL    HW233608   5.361   0.204   3.694  0.0815 -0.6143  0.7424
10723SOL     OW33609   4.777   7.658   3.234 -0.5777 -0.6886  0.6356
10723SOL    HW133610   4.788   7.566   3.214  0.4678 -0.1453 -1.5572
10723SOL    HW233611   4.865   7.695   3.233 -1.1175  0.7292 -0.8892
10724SOL     OW33612   4.922   6.831   6.991  0.2506  0.0855 -0.5316
10724SOL    HW133613   4.862   6.882   6.937  1.1185  0.1294 -1.4915
10724SOL    HW233614   4.918   6.872   7.077 -1.6143 -0.3536 -0.3522
10725SOL     OW33615   1.943   6.263   9.223  0.5632 -0.7524  0.1350
10725SOL    HW133616   1.899   6.309   9.152  0.9640 -0.5412  0.0197
10725SOL    HW233617   2.025   6.312   9.236 -0.3350  0.3735  1.9935
10726SOL     OW33618   3.950   0.887   2.450 -0.6401 -0.2661  0.1310
10726SOL    HW133619   3.875   0.845   2.408 -0.2787 -3.1865  2.1093
10726SOL    HW233620   3.911   0.951   2.510 -1.3719  0.3588 -0.9878
10727SOL     OW33621   4.897   7.332   7.889 -0.2863  0.1323  0.4577
10727SOL    HW133622   4.859   7.292   7.968 -0.4489 -0.4919  0.0665
10727SOL    HW233623   4.902   7.261   7.826 -0.8921  0.8041 -0.3640
10728SOL     OW33624   6.587   3.645   4.078  0.6489  0.2866 -0.0602
10728SOL    HW133625   6.600   3.554   4.053 -0.6278 -0.2896  1.2564
10728SOL    HW233626   6.675   3.683   4.080  1.1326 -0.7032 -1.3039
10729SOL     OW33627   2.795   3.909   9.000 -0.2374 -0.3645 -0.0739
10729SOL    HW133628   2.824   3.822   9.028 -1.3959 -0.4588  0.9361
10729SOL    HW233629   2.859   3.936   8.934  1.9946 -0.6402  1.8361
10730SOL     OW33630   6.070   2.659   8.710  0.4161 -0.0047  0.5031
10730SOL    HW133631   6.131   2.699   8.647  0.1933 -0.2620  0.1189
10730SOL    HW233632   6.112   2.671   8.795  0.3652  1.0520  0.4048
10731SOL     OW33633   5.153   6.657   5.551  0.4174  0.4296 -0.2035
10731SOL    HW133634   5.175   6.738   5.505 -0.5365  2.3136  2.3906
10731SOL    HW233635   5.215   6.592   5.519  0.6741  1.9289 -3.0097
10732SOL     OW33636   4.124   6.716   2.987 -0.9939  0.0240 -0.0156
10732SOL    HW133637   4.204   6.728   3.037 -0.9235  0.4591 -0.2313
10732SOL    HW233638   4.058   6.769   3.033 -1.0209  0.1158 -0.1591
10733SOL     OW33639   5.390   2.524   3.238 -0.0183  0.2065 -0.2311
10733SOL    HW133640   5.358   2.558   3.154 -0.3750  0.5627  0.0484
10733SOL    HW233641   5.342   2.442   3.249 -0.5389  0.5340 -0.0140
10734SOL     OW33642   2.216   4.273   3.982 -0.1543  0.1793  0.2682
10734SOL    HW133643   2.216   4.231   3.896  1.2783  0.2874  0.1918
10734SOL    HW233644   2.210   4.366   3.964  1.5322  0.3046  0.1815
10735SOL     OW33645   1.775   0.130   6.569  0.1130  0.0302  0.0272
10735SOL    HW133646   1.692   0.152   6.528  0.2167  0.1328 -0.1250
10735SOL    HW233647   1.797   0.043   6.535  0.0225 -0.0386  0.1406
10736SOL     OW33648   6.972   1.151   3.341  0.3662  0.0121  0.4002
10736SOL    HW133649   7.057   1.187   3.368  0.1048 -0.0117  1.2945
10736SOL    HW233650   6.978   1.057   3.359 -0.2004  0.1619  1.4556
10737SOL     OW33651   2.458   6.764   6.799 -0.2705  0.0619 -0.4106
10737SOL    HW133652   2.474   6.858   6.805 -0.3542  0.0327  0.3807
10737SOL    HW233653   2.529   6.724   6.850  1.4859 -0.4911 -3.0510
10738SOL     OW33654   5.964   0.100   6.907 -0.6931  0.2958  0.1478
10738SOL    HW133655   5.979   0.190   6.876  0.6031 -0.6082 -2.0603
10738SOL    HW233656   5.870   0.086   6.896 -1.0421  1.5795  1.1915
10739SOL     OW33657   3.062   0.485   7.431  0.7287  0.0911 -0.0210
10739SOL    HW133658   3.095   0.568   7.464 -0.6443  0.7657 -0.3048
10739SOL    HW233659   3.079   0.488   7.337  1.1867 -0.2029  0.0482
10740SOL     OW33660   0.702   7.168   2.607 -0.2262 -0.0246 -0.3756
10740SOL    HW133661   0.628   7.112   2.584  0.0884 -0.6664  0.1496
10740SOL    HW233662   0.761   7.160   2.532 -0.2145 -0.3417 -0.3349
10741SOL     OW33663   1.891   0.404   9.656 -0.5842  0.0049  0.0706
10741SOL    HW133664   1.952   0.383   9.727 -0.4849 -0.9537 -0.2944
10741SOL    HW233665   1.812   0.355   9.676 -1.4364  1.5722  0.7717
10742SOL     OW33666   5.043   2.447   4.228  0.4898  0.0504  0.2883
10742SOL    HW133667   4.987   2.459   4.152  1.6349  2.0227 -0.3021
10742SOL    HW233668   5.039   2.530   4.275 -0.8038 -1.3476  2.8972
10743SOL     OW33669   6.542   0.760  11.485 -0.2712 -0.5634  0.1135
10743SOL    HW133670   6.602   0.706  11.537 -0.3178 -0.9965 -0.2797
10743SOL    HW233671   6.457   0.717  11.494  0.0306 -1.6117 -1.6596
10744SOL     OW33672   0.772   1.152   3.019 -0.2416 -0.4207 -0.2053
10744SOL    HW133673   0.838   1.194   3.073 -0.3033 -0.3601 -0.1779
10744SOL    HW233674   0.695   1.207   3.027 -0.1638 -0.2518 -0.5842
10745SOL     OW33675   3.936   3.967   0.778 -0.1398  0.7768  0.4658
10745SOL    HW133676   3.864   3.906   0.766 -0.2127  1.4100 -3.8772
10745SOL    HW233677   4.002   3.939   0.715  2.0095  2.2502  1.9154
10746SOL     OW33678   2.742   6.588   0.034  0.2217 -0.3445  0.3481
10746SOL    HW133679   2.695   6.613   0.113 -1.4607 -1.1352 -0.3581
10746SOL    HW233680   2.730   6.661  -0.026  0.1434 -0.4310  0.2592
10747SOL     OW33681   2.558   2.030  11.819  0.3475 -0.1942 -0.7993
10747SOL    HW133682   2.510   1.979  11.754 -0.3441  1.6338 -1.7975
10747SOL    HW233683   2.512   2.114  11.822  0.5185 -0.1172  1.8775
10748SOL     OW33684   6.645   5.401   6.200  0.2181 -0.2945 -0.2616
10748SOL    HW133685   6.724   5.419   6.148  0.3901 -0.5029 -0.0735
10748SOL    HW233686   6.642   5.473   6.263  0.1777 -0.2080 -0.3614
10749SOL     OW33687   3.210   7.748   4.332 -0.3217  0.0975 -0.1875
10749SOL    HW133688   3.167   7.663   4.320 -0.2988  0.1227 -0.4424
10749SOL    HW233689   3.186   7.774   4.421 -1.7220  0.6142 -0.6885
10750SOL     OW33690   5.994   4.449   9.404 -0.2053  0.3833 -0.0992
10750SOL    HW133691   6.002   4.504   9.482  1.1222 -0.5326  0.4487
10750SOL    HW233692   5.904   4.462   9.375 -1.0213  0.0960  2.0992
10751SOL     OW33693   6.529   1.912   1.773 -0.2430 -0.1121 -0.4232
10751SOL    HW133694   6.523   1.892   1.680  0.5380 -0.2320 -0.4527
10751SOL    HW233695   6.498   1.833   1.817 -0.1767 -0.2213 -0.5744
10752SOL     OW33696   4.105   5.037   1.900 -0.4578  0.5960 -0.1458
10752SOL    HW133697   4.189   5.022   1.942 -1.2371  0.4624  1.4204
10752SOL    HW233698   4.092   5.132   1.904 -0.6571  0.5568  0.1780
10753SOL     OW33699   7.247   0.927   4.409  0.1005 -0.2292 -0.5383
10753SOL    HW133700   7.318   0.897   4.466  0.9007  0.0870 -1.3431
10753SOL    HW233701   7.167   0.903   4.455  0.6179 -4.0709 -1.2713
10754SOL     OW33702   6.585   3.032   6.981 -0.3168 -0.2445  0.6705
10754SOL    HW133703   6.539   2.989   7.053 -1.3474 -0.0849  0.1255
10754SOL    HW233704   6.595   2.964   6.914 -3.0712  0.5596 -0.7165
10755SOL     OW33705   0.159   5.826   4.244  0.6339  0.5794  0.0028
10755SOL    HW133706   0.065   5.810   4.245  0.7732 -0.4543 -0.9315
10755SOL    HW233707   0.198   5.738   4.245  1.6361  0.9992  2.2011
10756SOL     OW33708   4.804   2.664   6.067 -0.1190 -0.1346  0.1461
10756SOL    HW133709   4.861   2.659   6.144 -0.2068 -0.8046  0.1771
10756SOL    HW233710   4.715   2.660   6.102 -0.2231  1.5685  0.1466
10757SOL     OW33711   0.624   4.232   5.833  0.7775  0.0966  0.2074
10757SOL    HW133712   0.661   4.253   5.919 -1.1676 -1.9156  1.6502
10757SOL    HW233713   0.633   4.137   5.826 -0.8922 -0.0183 -0.9134
10758SOL     OW33714   4.120   3.329  10.320 -0.0314  0.0972 -0.1305
10758SOL    HW133715   4.124   3.423  10.338  1.1465 -0.0256  0.3420
10758SOL    HW233716   4.211   3.304  10.306 -0.3827 -0.9040 -0.6488
10759SOL     OW33717   7.165   7.210   8.145 -0.1220  0.3519  0.1573
10759SOL    HW133718   7.105   7.213   8.220  1.4672 -0.3321  1.5100
10759SOL    HW233719   7.189   7.118   8.136 -0.3731  0.3999 -1.3049
10760SOL     OW33720   4.827   7.484   6.554 -0.2499  0.5734  0.4378
10760SOL    HW133721   4.831   7.435   6.637  0.9162 -0.0839  0.0221
10760SOL    HW233722   4.806   7.573   6.580 -1.5602  0.0482  1.2943
10761SOL     OW33723   1.671   1.347   6.428  0.4519 -0.1807  0.8113
10761SOL    HW133724   1.730   1.294   6.481  0.4083  0.3804  1.4266
10761SOL    HW233725   1.583   1.318   6.454  0.4263  0.2561  1.2172
10762SOL     OW33726   4.920   5.380   7.608  0.1277  0.2039 -0.2507
10762SOL    HW133727   4.988   5.356   7.672 -0.4249 -0.9873 -0.0833
10762SOL    HW233728   4.865   5.443   7.654 -0.9068 -1.4398  0.9180
10763SOL     OW33729   5.503   7.713  11.507  0.0855 -0.1038 -0.1079
10763SOL    HW133730   5.451   7.755  11.438  1.4054  0.1644 -0.9768
10763SOL    HW233731   5.582   7.767  11.513  0.9095 -1.2992  0.1726
10764SOL     OW33732   7.596   0.663   6.894 -0.2339 -0.3356 -0.0514
10764SOL    HW133733   7.609   0.568   6.901 -0.8221 -0.3761  0.6844
10764SOL    HW233734   7.651   0.699   6.964  0.4900 -0.0734 -0.7359
10765SOL     OW33735   7.090   1.959   5.589  0.3166 -0.0384 -0.4352
10765SOL    HW133736   7.170   1.942   5.639 -0.0870 -0.4062  0.0870
10765SOL    HW233737   7.020   1.958   5.654  0.0973  2.3994 -0.5361
10766SOL     OW33738   1.826   5.521   6.338  0.8307 -0.4380 -0.1249
10766SOL    HW133739   1.835   5.430   6.310  0.3901 -0.4682 -0.1743
10766SOL    HW233740   1.914   5.557   6.331  1.3386 -1.2948  1.4291
10767SOL     OW33741   5.725   1.974   5.095  0.1924 -0.3361 -0.4059
10767SOL    HW133742   5.804   1.966   5.041  0.7328 -2.6529  0.5986
10767SOL    HW233743   5.691   1.885   5.100 -1.3479  0.2807  0.8943
10768SOL     OW33744   5.914   4.249   6.659  0.4295 -0.2002  0.2321
10768SOL    HW133745   5.860   4.323   6.630  0.3038 -0.4324 -0.1272
10768SOL    HW233746   5.861   4.206   6.726  0.2497 -0.3115  0.0199
10769SOL     OW33747   0.643   5.747   5.354 -0.3293 -0.0214 -0.2445
10769SOL    HW133748   0.717   5.794   5.315  0.3750 -0.8518  0.0379
10769SOL    HW233749   0.574   5.751   5.287  1.1136 -2.1306 -2.0212
10770SOL     OW33750   4.857   2.000   7.816 -0.4239 -0.2296  0.0558
10770SOL    HW133751   4.857   2.031   7.907 -1.7625 -0.9407  0.3372
10770SOL    HW233752   4.838   1.907   7.823  1.7725 -0.8053 -0.8653
10771SOL     OW33753   2.852   0.912  10.617  0.3889 -0.3150 -0.3868
10771SOL    HW133754   2.899   0.832  10.643  2.0933  0.3901 -1.1306
10771SOL    HW233755   2.912   0.956  10.557 -0.5112  1.5266  0.0082
10772SOL     OW33756   1.494   7.567   6.374  0.1178 -0.3274 -0.2542
10772SOL    HW133757   1.509   7.474   6.358  0.0971 -0.0921 -1.8802
10772SOL    HW233758   1.575   7.609   6.344  0.4680  0.1313  1.2770
10773SOL     OW33759   1.143   1.305   5.508  0.2164  0.8056 -0.8213
10773SOL    HW133760   1.091   1.377   5.544 -0.7336  0.2962 -1.1431
10773SOL    HW233761   1.218   1.298   5.567  0.0057  1.6571 -0.4355
10774SOL     OW33762   5.387   1.530   8.178  0.0263  0.5357  0.1378
10774SOL    HW133763   5.435   1.606   8.212  1.2707 -0.5906  0.9760
10774SOL    HW233764   5.348   1.489   8.255 -1.4296  0.8201 -0.4156
10775SOL     OW33765   5.045   0.514   8.627  0.4711 -0.4402 -0.0137
10775SOL    HW133766   4.996   0.557   8.697  1.0220  1.0779 -0.5176
10775SOL    HW233767   4.989   0.442   8.599 -0.5173 -0.0240  0.8280
10776SOL     OW33768   2.980   3.692   7.247  0.3304  0.2127  0.2842
10776SOL    HW133769   2.904   3.740   7.215 -0.6441 -1.6263 -0.2543
10776SOL    HW233770   2.955   3.662   7.334  0.9845  0.7531  0.6699
10777SOL     OW33771   7.282   2.706   3.202  0.4557  0.6259 -0.3022
10777SOL    HW133772   7.296   2.668   3.289  0.0744  1.9386  0.3641
10777SOL    HW233773   7.241   2.791   3.220  5.6963  3.8057 -1.3243
10778SOL     OW33774   0.865   7.614   7.095 -0.1547  0.5086  0.0714
10778SOL    HW133775   0.960   7.613   7.107 -0.2378  0.2457  0.7408
10778SOL    HW233776   0.830   7.644   7.179 -0.7419 -1.0016  0.4088
10779SOL     OW33777   0.622   2.684  11.546  0.1640 -0.6663 -0.4927
10779SOL    HW133778   0.681   2.661  11.474  1.5605 -1.1864  0.7698
10779SOL    HW233779   0.572   2.604  11.562  0.5943 -0.8823 -0.2088
10780SOL     OW33780   2.352   6.940   7.789 -0.0843  0.0900  0.0645
10780SOL    HW133781   2.408   6.864   7.808  0.4039  0.0617 -1.3289
10780SOL    HW233782   2.389   7.011   7.841  2.4479  0.5255 -2.0888
10781SOL     OW33783   4.192   4.840   8.974  0.9219 -0.2052 -0.1973
10781SOL    HW133784   4.104   4.814   9.000  0.1695  0.2474 -2.1096
10781SOL    HW233785   4.179   4.899   8.900  2.8538 -1.4455 -1.6529
10782SOL     OW33786   2.495   4.493   1.971 -0.5378  0.3682 -0.2076
10782SOL    HW133787   2.400   4.487   1.965 -0.8367  1.5649  2.0307
10782SOL    HW233788   2.520   4.416   2.023 -0.2606  0.0645 -0.7790
10783SOL     OW33789   6.714   6.523   3.358 -0.3220 -0.7287 -0.4245
10783SOL    HW133790   6.665   6.572   3.424  0.0914 -1.1127  0.1803
10783SOL    HW233791   6.804   6.551   3.369 -0.1882 -1.1040 -0.5406
10784SOL     OW33792   6.288   5.207   6.414 -0.4543  0.0388 -0.1148
10784SOL    HW133793   6.299   5.246   6.327 -0.8289 -2.0379 -1.1565
10784SOL    HW233794   6.196   5.218   6.435 -0.0772  1.9133  0.7682
10785SOL     OW33795   5.540   4.020  10.072  0.1827 -0.3526 -0.7558
10785SOL    HW133796   5.464   4.033  10.015 -0.9179 -1.6584  0.3199
10785SOL    HW233797   5.562   3.928  10.062  0.2219 -0.5193  0.5736
10786SOL     OW33798   7.599   6.811  10.498  0.1456  0.6123 -0.1280
10786SOL    HW133799   7.622   6.827  10.407 -1.6063  1.2339 -0.5133
10786SOL    HW233800   7.529   6.746  10.494  1.1204 -0.5381  0.8969
10787SOL     OW33801   6.592   5.412   3.466 -0.3510  0.7714  0.0062
10787SOL    HW133802   6.612   5.485   3.408  0.5491  0.9636  0.5383
10787SOL    HW233803   6.528   5.448   3.528 -1.8276  0.3819 -1.2141
10788SOL     OW33804   5.064   0.498   4.226 -0.2047 -0.1513 -0.0925
10788SOL    HW133805   5.084   0.479   4.134  0.9468  1.5329 -0.2490
10788SOL    HW233806   5.056   0.594   4.228 -2.8726 -0.3283  1.0868
10789SOL     OW33807   1.213   3.109   1.440  0.3067  0.1610  0.3051
10789SOL    HW133808   1.144   3.047   1.415  0.8794  0.8562 -3.6212
10789SOL    HW233809   1.167   3.191   1.456  0.0394  0.0518  0.0985
10790SOL     OW33810   4.186   4.844   1.568  0.0814 -0.1071  0.4278
10790SOL    HW133811   4.201   4.766   1.514 -1.4966 -0.9571  1.1472
10790SOL    HW233812   4.205   4.918   1.509 -0.7972 -1.0064 -1.0520
10791SOL     OW33813   4.057   4.036  11.296  0.0696 -0.3139  0.0016
10791SOL    HW133814   4.063   4.108  11.234  2.4225  0.2170  0.7187
10791SOL    HW233815   4.014   3.966  11.248 -1.5957  1.2976 -0.9533
10792SOL     OW33816   5.450   7.589   0.389 -0.7540 -0.3004  0.1813
10792SOL    HW133817   5.546   7.588   0.391 -0.7499  0.0635  0.2965
10792SOL    HW233818   5.424   7.594   0.482 -0.9152 -1.8940  0.2522
10793SOL     OW33819   4.817   4.971   4.450  0.1331  0.2702  0.1735
10793SOL    HW133820   4.758   4.980   4.525  0.3576 -1.4895  0.6039
10793SOL    HW233821   4.780   4.899   4.399  1.8686 -0.8947  0.4547
10794SOL     OW33822   6.503   5.161   1.875 -0.3902  0.0665  0.0721
10794SOL    HW133823   6.527   5.114   1.955  1.5866  0.2196 -0.3703
10794SOL    HW233824   6.441   5.104   1.830 -0.2640 -0.7601  0.9295
10795SOL     OW33825   1.714   6.887  10.159 -0.2238 -0.3779 -0.1090
10795SOL    HW133826   1.732   6.979  10.175  0.0365 -0.4719  0.1496
10795SOL    HW233827   1.627   6.873  10.195 -1.4281  0.3846 -2.5194
10796SOL     OW33828   2.821   7.554   4.767 -0.4656 -0.0753  0.0077
10796SOL    HW133829   2.853   7.644   4.758 -2.5212  0.6191 -0.9061
10796SOL    HW233830   2.768   7.540   4.689 -1.0622 -1.7223  0.6707
10797SOL     OW33831   1.079   6.731   7.668  0.1776 -0.3783 -0.3429
10797SOL    HW133832   1.132   6.719   7.747 -0.3207 -1.7594 -0.1993
10797SOL    HW233833   1.120   6.674   7.603 -0.2370 -0.3010 -0.6749
10798SOL     OW33834   3.431   7.422   6.947  0.6844 -0.0709  0.1348
10798SOL    HW133835   3.478   7.339   6.947 -0.2810 -0.6539 -0.8263
10798SOL    HW233836   3.475   7.475   7.014  1.7574 -1.0933  0.2770
10799SOL     OW33837   5.032   4.147   5.131 -0.2721 -0.2347 -0.2324
10799SOL    HW133838   4.961   4.211   5.137  0.1505  0.2791 -0.6638
10799SOL    HW233839   4.997   4.078   5.074  0.1607  0.8279 -1.8520
10800SOL     OW33840   7.494   0.964  11.268  0.2496 -0.2902  0.4203
10800SOL    HW133841   7.432   0.954  11.341  0.8575 -0.0295  0.9823
10800SOL    HW233842   7.562   1.022  11.302 -0.2795  1.1578 -0.8854
10801SOL     OW33843   7.476   0.396  10.451 -0.0288 -0.4943 -0.2920
10801SOL    HW133844   7.437   0.390  10.364 -1.4049  0.2075  0.2562
10801SOL    HW233845   7.410   0.441  10.504  2.3790  2.9705  0.1117
10802SOL     OW33846   4.014   7.829   3.638  0.0284 -0.2699 -0.3164
10802SOL    HW133847   4.028   7.865   3.725 -0.5086 -0.6270 -0.0762
10802SOL    HW233848   3.928   7.788   3.642 -0.0336 -0.2327 -1.0354
10803SOL     OW33849   7.318   1.199   4.574 -0.3582  0.1093 -0.0912
10803SOL    HW133850   7.351   1.168   4.658 -0.2164 -0.6214 -0.4116
10803SOL    HW233851   7.350   1.135   4.510  0.3153  1.1535 -0.8243
10804SOL     OW33852   5.047   0.379   9.119 -0.2925  0.2683 -0.7779
10804SOL    HW133853   5.073   0.309   9.059  2.0442  0.1894  0.2211
10804SOL    HW233854   5.126   0.397   9.171 -2.2523  0.0381  2.5781
10805SOL     OW33855   5.182   2.748   6.892  0.9379 -0.1849  0.2595
10805SOL    HW133856   5.252   2.736   6.956  1.1106  1.6564  0.4563
10805SOL    HW233857   5.214   2.815   6.832 -0.6649  0.8115  0.4338
10806SOL     OW33858   6.153   4.365   3.228  0.0052 -0.2458 -0.3876
10806SOL    HW133859   6.240   4.404   3.221  0.0015  0.0498  0.8522
10806SOL    HW233860   6.094   4.440   3.232 -0.1522 -0.3983  0.3292
10807SOL     OW33861   3.110   7.304  11.064 -0.4602 -0.5384  0.1692
10807SOL    HW133862   3.116   7.284  11.157  0.8780 -0.4375  0.1287
10807SOL    HW233863   3.080   7.395  11.061  1.6778  0.2548  0.6088
10808SOL     OW33864   7.213   4.496   0.465 -0.3173 -0.1446  0.0520
10808SOL    HW133865   7.183   4.453   0.545 -1.5494 -0.4956 -0.5736
10808SOL    HW233866   7.225   4.587   0.490 -0.0511 -0.3805  0.7976
10809SOL     OW33867   6.123   3.462  11.808  0.2029  0.3695  0.1193
10809SOL    HW133868   6.043   3.409  11.803  0.5868 -0.1009 -2.0713
10809SOL    HW233869   6.133   3.498  11.720  0.9566  2.6666  1.0732
10810SOL     OW33870   5.730   0.613  12.071 -0.2976 -0.0325 -0.4269
10810SOL    HW133871   5.681   0.531  12.075 -1.0366  0.1923 -3.0364
10810SOL    HW233872   5.814   0.590  12.030  0.0289  0.2954  0.0501
10811SOL     OW33873   0.611   0.422  11.138 -0.7537  0.4031  0.0891
10811SOL    HW133874   0.532   0.408  11.190 -0.7061  0.7551  0.2578
10811SOL    HW233875   0.590   0.497  11.082 -0.4810  0.6044  0.2549
10812SOL     OW33876   0.429   2.265   6.836 -0.4871 -0.9786  0.7875
10812SOL    HW133877   0.350   2.316   6.853  1.0827  1.4556  1.3234
10812SOL    HW233878   0.462   2.241   6.923  0.8101  0.5092  0.7609
10813SOL     OW33879   4.129   1.357   2.122  0.0045 -0.4316 -0.1893
10813SOL    HW133880   4.057   1.296   2.105  0.6729 -1.7025  1.3245
10813SOL    HW233881   4.091   1.421   2.182  0.0066 -0.8544  0.2685
10814SOL     OW33882   5.072   1.709   2.533  0.2170 -0.4022 -0.3014
10814SOL    HW133883   5.128   1.635   2.555 -0.4848 -0.5549  1.0753
10814SOL    HW233884   4.984   1.673   2.530  0.0490  0.0533 -1.3533
10815SOL     OW33885   7.372   1.331   2.284  0.6797 -0.4919  0.2393
10815SOL    HW133886   7.331   1.312   2.199 -0.4450  0.6755  0.4866
10815SOL    HW233887   7.453   1.281   2.283  1.0666  0.0626 -1.8549
10816SOL     OW33888   7.709   4.453  10.937 -0.1825  0.3381  0.1863
10816SOL    HW133889   7.799   4.424  10.955  0.6368  1.2154 -2.1847
10816SOL    HW233890   7.660   4.372  10.923  0.9152 -0.1164 -1.2716
10817SOL     OW33891   2.869   0.655   6.616 -0.0963  0.1878 -0.2777
10817SOL    HW133892   2.821   0.682   6.538 -2.3115 -1.0005  0.5752
10817SOL    HW233893   2.891   0.738   6.660  1.5983  0.8885 -2.3157
10818SOL     OW33894   4.721   1.375   3.098 -0.1133 -0.2664 -0.3550
10818SOL    HW133895   4.724   1.279   3.106 -1.0259 -0.4428 -1.6862
10818SOL    HW233896   4.641   1.400   3.143 -0.3176 -0.2431 -0.7198
10819SOL     OW33897   2.531   6.707   1.131  0.2070  0.1032  0.4031
10819SOL    HW133898   2.483   6.680   1.210 -1.0520  0.6123 -0.1622
10819SOL    HW233899   2.543   6.626   1.082 -0.4405  0.0194  0.3704
10820SOL     OW33900   6.105   7.359   9.981 -0.1809 -0.1338 -0.0111
10820SOL    HW133901   6.158   7.285   9.949 -3.3836 -2.9724  0.6873
10820SOL    HW233902   6.017   7.341   9.950 -1.1811  3.4086  0.3820
10821SOL     OW33903   3.731   0.281  11.899 -0.2766 -0.8771 -0.6320
10821SOL    HW133904   3.656   0.295  11.841 -0.0664 -1.4881 -1.0596
10821SOL    HW233905   3.713   0.338  11.975 -0.0369  0.7576 -1.7388
10822SOL     OW33906   1.701   0.757   2.461  0.1506  0.3229  0.1104
10822SOL    HW133907   1.720   0.778   2.370 -3.1927 -0.2782 -0.8647
10822SOL    HW233908   1.715   0.840   2.508  1.3866  0.7820 -1.0135
10823SOL     OW33909   3.054   7.216   0.494  0.0430 -0.0037  0.3046
10823SOL    HW133910   3.009   7.268   0.428 -0.1121 -0.1980  0.2552
10823SOL    HW233911   3.092   7.280   0.554 -0.0806  0.1677  0.1991
10824SOL     OW33912   6.582   1.998   2.679 -0.1502  0.2881 -0.0832
10824SOL    HW133913   6.563   2.053   2.755  0.0548  0.3606 -0.0828
10824SOL    HW233914   6.508   1.938   2.673 -0.1977  0.3268  0.1330
10825SOL     OW33915   6.754   3.161   0.347 -0.3896  0.4346 -0.5338
10825SOL    HW133916   6.750   3.094   0.278  0.4272  0.9819 -1.1287
10825SOL    HW233917   6.664   3.166   0.380 -0.1778 -2.1166  0.6734
10826SOL     OW33918   3.370   6.102  11.380 -0.0533 -0.2730 -0.0051
10826SOL    HW133919   3.379   6.051  11.460 -1.1448 -1.4809 -0.6035
10826SOL    HW233920   3.360   6.193  11.409 -0.4024 -0.6950  1.2120
10827SOL     OW33921   6.122   3.586   6.688 -0.1931  0.0408 -0.1881
10827SOL    HW133922   6.039   3.573   6.734 -0.8962 -0.5573 -1.5681
10827SOL    HW233923   6.096   3.606   6.598  1.1707 -1.4604 -0.9676
10828SOL     OW33924   0.301   0.858  11.317 -0.4695  0.1217  0.2621
10828SOL    HW133925   0.341   0.808  11.388 -2.5773 -0.4142  1.1418
10828SOL    HW233926   0.371   0.915  11.286  1.5054 -2.0474  0.4375
10829SOL     OW33927   6.590   4.725   9.697 -0.3996 -0.3607  0.0314
10829SOL    HW133928   6.634   4.678   9.767  2.0798  0.0919 -1.1330
10829SOL    HW233929   6.659   4.747   9.634 -2.5514 -1.2346 -2.8787
10830SOL     OW33930   0.620   5.727   3.620 -0.1439  0.1583 -0.3868
10830SOL    HW133931   0.652   5.671   3.550  0.8871 -0.2076  0.3658
10830SOL    HW233932   0.696   5.741   3.677 -0.7220  1.2219  0.1534
10831SOL     OW33933   1.869   1.261   6.603 -0.4146  0.3585 -0.5591
10831SOL    HW133934   1.866   1.174   6.642 -0.1750  0.3515 -0.5576
10831SOL    HW233935   1.844   1.320   6.674 -0.1266  0.3326 -0.4354
10832SOL     OW33936   2.405   4.314   6.541 -0.0370 -0.6643 -0.7438
10832SOL    HW133937   2.322   4.336   6.584 -0.7606 -0.9249 -1.9466
10832SOL    HW233938   2.391   4.225   6.508  1.5416 -1.5925  0.9597
10833SOL     OW33939   0.794   3.682   2.451 -0.2844 -0.4181 -0.3877
10833SOL    HW133940   0.877   3.654   2.412  0.0275  0.7542 -0.6084
10833SOL    HW233941   0.788   3.632   2.532 -0.8577 -2.7609 -1.8045
10834SOL     OW33942   4.274   6.516   9.285 -0.0990  0.2435  0.0955
10834SOL    HW133943   4.259   6.600   9.328 -1.2163  0.5859 -0.8848
10834SOL    HW233944   4.196   6.465   9.306  0.2291 -0.2715  0.0656
10835SOL     OW33945   3.741   6.470   3.277 -0.3749 -0.2065  0.5068
10835SOL    HW133946   3.782   6.504   3.197  0.5260 -1.3712  0.4526
10835SOL    HW233947   3.733   6.547   3.333  0.1897  0.3912 -0.1979
10836SOL     OW33948   3.010   6.342  10.152  0.0400  0.7241  0.0829
10836SOL    HW133949   3.055   6.392  10.220  1.3922 -0.1696 -0.1018
10836SOL    HW233950   3.035   6.251  10.170  0.6593  0.4918 -1.7502
10837SOL     OW33951   2.549   4.923   5.551  0.1365 -0.0183  0.4094
10837SOL    HW133952   2.622   4.901   5.609 -0.9468 -0.3065  1.7027
10837SOL    HW233953   2.525   4.840   5.510  0.7660  0.1488 -0.3390
10838SOL     OW33954   0.044   1.231   0.305  0.3353  0.1512  0.7363
10838SOL    HW133955   0.011   1.141   0.307 -1.6293  0.8286  0.2351
10838SOL    HW233956   0.114   1.229   0.240 -0.3381 -0.8173  0.0085
10839SOL     OW33957   6.914   4.908  10.642 -0.0762  0.1242 -0.4562
10839SOL    HW133958   6.932   4.942  10.554  2.0317 -1.0635 -0.5466
10839SOL    HW233959   6.936   4.981  10.701  1.1815  0.0669 -0.8172
10840SOL     OW33960   4.202   7.364   4.931  0.1278 -0.2046  0.1820
10840SOL    HW133961   4.259   7.288   4.922 -0.6650 -0.5705 -3.5426
10840SOL    HW233962   4.119   7.329   4.964  0.5802 -0.4538  1.0789
10841SOL     OW33963   1.077   4.873   3.037  0.3097  0.0997  0.4591
10841SOL    HW133964   1.129   4.809   3.085  1.1951 -0.3470 -1.0195
10841SOL    HW233965   1.139   4.942   3.014  0.0577  0.0084 -0.5464
10842SOL     OW33966   3.375   4.298   7.363 -0.8726 -0.7283 -0.1162
10842SOL    HW133967   3.383   4.383   7.321  3.3906 -2.1241 -2.7677
10842SOL    HW233968   3.364   4.318   7.456  2.1699  2.8357 -0.2994
10843SOL     OW33969   7.427   7.389  10.463  0.0760  0.0367  0.0368
10843SOL    HW133970   7.496   7.341  10.508 -0.5202 -0.0905  0.8366
10843SOL    HW233971   7.392   7.327  10.399 -1.1807 -0.9037  1.5533
10844SOL     OW33972   7.118   4.288   8.539  0.4439 -0.1070 -0.1837
10844SOL    HW133973   7.030   4.254   8.557  0.7034 -0.8413 -0.2941
10844SOL    HW233974   7.104   4.354   8.470 -0.0914  0.2037  0.2154
10845SOL     OW33975   7.560   3.324   3.492 -0.4260 -0.8125  0.0785
10845SOL    HW133976   7.493   3.375   3.538 -0.5453 -1.1255  0.2523
10845SOL    HW233977   7.631   3.316   3.555 -0.0891 -0.2058 -0.2181
10846SOL     OW33978   7.505   1.903   6.927  0.2629  0.0651  0.1430
10846SOL    HW133979   7.594   1.917   6.894 -0.0506  2.3411  0.0984
10846SOL    HW233980   7.492   1.974   6.990 -1.0700 -1.0294  1.1549
10847SOL     OW33981   4.873   1.990  11.080 -0.4684  0.0297  0.2245
10847SOL    HW133982   4.959   2.031  11.091  0.0256 -0.6837 -0.8034
10847SOL    HW233983   4.823   2.055  11.030 -0.6245  0.5574  1.0514
10848SOL     OW33984   2.840   0.940   8.224  0.1039 -0.1514 -0.4497
10848SOL    HW133985   2.866   1.009   8.163  2.6976 -0.7052 -0.0801
10848SOL    HW233986   2.854   0.859   8.176  0.1684 -0.5216  0.1817
10849SOL     OW33987   2.547   7.547   8.791  0.5231  0.6155 -0.5139
10849SOL    HW133988   2.478   7.548   8.724  0.4372 -1.1636 -0.5002
10849SOL    HW233989   2.516   7.608   8.857 -1.3815 -0.5368 -0.2397
10850SOL     OW33990   0.227   5.267   9.784 -0.1034  0.5251 -0.3031
10850SOL    HW133991   0.221   5.305   9.872 -2.9506 -1.1589  0.3666
10850SOL    HW233992   0.274   5.333   9.733  1.4410  1.6703  2.3907
10851SOL     OW33993   6.453   1.859  11.556  0.9011  0.3737  0.4226
10851SOL    HW133994   6.523   1.810  11.599  0.2001 -2.6828 -1.5793
10851SOL    HW233995   6.378   1.849  11.614  0.8231 -0.8673  0.1450
10852SOL     OW33996   6.112   2.702   9.897  0.2223  0.0636  0.4494
10852SOL    HW133997   6.059   2.626   9.875  3.7238 -2.1212 -1.2593
10852SOL    HW233998   6.077   2.772   9.843  0.0322 -1.7000 -1.8465
10853SOL     OW33999   6.151   7.892  10.090 -0.0430 -0.0805  0.5547
10853SOL    HW134000   6.143   7.917   9.998  0.9916  0.5301  0.6154
10853SOL    HW234001   6.209   7.958  10.128  1.8181 -1.8674  0.9934
10854SOL     OW34002   5.921   6.906   7.700 -0.1477 -0.2026 -0.5097
10854SOL    HW134003   5.916   6.831   7.759 -0.9245  1.0121  1.0584
10854SOL    HW234004   5.982   6.879   7.632  0.3597 -1.8893  0.5501
10855SOL     OW34005   7.721   3.315   5.978  0.4191  0.3910  0.3179
10855SOL    HW134006   7.718   3.224   5.948  0.5477  0.9165 -1.4574
10855SOL    HW234007   7.797   3.319   6.036 -0.1028 -0.8017  1.1145
10856SOL     OW34008   6.553   0.117   4.165  0.4226  0.1011  0.3190
10856SOL    HW134009   6.494   0.047   4.138  0.7688  0.3240 -1.0726
10856SOL    HW234010   6.597   0.145   4.084  1.5332  0.7683  1.1202
10857SOL     OW34011   1.942   5.745   2.826 -0.4768  0.3970  0.0415
10857SOL    HW134012   1.896   5.800   2.889 -0.1983  0.1518  0.4582
10857SOL    HW234013   1.940   5.796   2.745  0.2726  1.2828  0.5642
10858SOL     OW34014   7.329   0.731   3.458  0.3253 -0.5933  0.0166
10858SOL    HW134015   7.250   0.781   3.476 -1.0642 -2.5114 -0.4158
10858SOL    HW234016   7.350   0.689   3.542 -0.8164 -2.2928 -0.4869
10859SOL     OW34017   6.810   4.396   3.722 -0.0908  0.2572 -0.3269
10859SOL    HW134018   6.857   4.381   3.804 -3.0748  3.8216  2.4016
10859SOL    HW234019   6.794   4.309   3.686  3.6237 -1.3334  1.3236
10860SOL     OW34020   0.055   2.024   4.624 -0.2885 -0.0881 -0.7857
10860SOL    HW134021  -0.039   2.010   4.611 -0.3891  1.0002 -1.3850
10860SOL    HW234022   0.096   1.968   4.559 -0.3861 -2.5276  1.1364
10861SOL     OW34023   5.317   4.200   7.055  0.3932 -0.1191 -0.5504
10861SOL    HW134024   5.278   4.114   7.074 -3.1901  1.4652  0.1769
10861SOL    HW234025   5.372   4.219   7.131 -1.0060 -0.6776  0.6697
10862SOL     OW34026   5.449   6.447   8.754  0.1180 -0.1698  0.2059
10862SOL    HW134027   5.395   6.525   8.748 -0.5488 -0.5576  0.9760
10862SOL    HW234028   5.539   6.479   8.752 -0.1010  0.4270 -1.8332
10863SOL     OW34029   1.310   2.744   9.390 -0.7340 -0.0661 -0.3335
10863SOL    HW134030   1.395   2.720   9.426 -0.7461  1.0685  0.4874
10863SOL    HW234031   1.330   2.797   9.313 -0.6978  0.2086 -0.1348
10864SOL     OW34032   2.768   5.520   8.204  0.3472  0.6306 -0.1007
10864SOL    HW134033   2.816   5.508   8.122 -1.7541 -0.2092 -1.2738
10864SOL    HW234034   2.676   5.516   8.179 -0.3667  1.3753  2.1738
10865SOL     OW34035   5.192   6.391   3.874 -0.1798  0.3244 -0.4081
10865SOL    HW134036   5.141   6.461   3.833  0.5721 -0.2933 -2.4905
10865SOL    HW234037   5.220   6.336   3.802 -0.2630 -1.8488  1.1152
10866SOL     OW34038   6.333   1.442   7.122  0.0423  0.4462 -0.1663
10866SOL    HW134039   6.369   1.530   7.117 -0.2865  0.7060  1.5630
10866SOL    HW234040   6.254   1.445   7.069 -1.0185  1.7684  1.4057
10867SOL     OW34041   2.305   0.096   0.475 -0.3995 -0.1303 -0.1281
10867SOL    HW134042   2.349   0.061   0.398  0.7280  5.5204 -2.5873
10867SOL    HW234043   2.219   0.125   0.443 -1.1808 -0.3444  1.6062
10868SOL     OW34044   2.711   7.128   3.316 -0.2862  0.0182  0.6861
10868SOL    HW134045   2.646   7.058   3.321  0.2310 -0.7772 -2.1351
10868SOL    HW234046   2.660   7.205   3.290 -0.1496 -0.7708 -2.2825
10869SOL     OW34047   0.643   0.133   2.434  0.4825 -0.6612  0.3079
10869SOL    HW134048   0.614   0.046   2.407  0.5895 -0.6608  0.1903
10869SOL    HW234049   0.727   0.146   2.390  0.9484 -0.8946  1.1119
10870SOL     OW34050   0.731   7.417   7.638  0.3395 -0.0272 -0.2633
10870SOL    HW134051   0.739   7.322   7.652  1.3714  0.1227  0.2897
10870SOL    HW234052   0.701   7.451   7.723  1.7585  0.3330  0.1144
10871SOL     OW34053   1.777   2.368   0.588  0.1841  0.0742 -0.3768
10871SOL    HW134054   1.695   2.329   0.558 -0.2830  2.3687 -2.4037
10871SOL    HW234055   1.803   2.315   0.663 -3.0586 -0.8546  0.2346
10872SOL     OW34056   7.252   2.661   8.384 -0.1603  0.2787  0.3304
10872SOL    HW134057   7.216   2.712   8.457 -0.7906 -0.4616  0.5516
10872SOL    HW234058   7.345   2.683   8.382 -0.3771  1.2402  0.5773
10873SOL     OW34059   2.580   7.488   1.697  0.3099  0.3125 -0.3806
10873SOL    HW134060   2.636   7.439   1.637 -1.8311 -2.1230 -0.5979
10873SOL    HW234061   2.511   7.525   1.642 -0.6706 -0.4114  0.3241
10874SOL     OW34062   1.282   1.106   2.831 -0.1379  0.1490 -0.0646
10874SOL    HW134063   1.189   1.086   2.841  0.4119 -1.7817  2.4458
10874SOL    HW234064   1.309   1.059   2.752 -1.0946 -0.1708 -0.2155
10875SOL     OW34065   7.592   7.038   1.915  0.4217  0.6164  0.0484
10875SOL    HW134066   7.596   6.961   1.972 -3.5089  0.2189  0.0476
10875SOL    HW234067   7.631   7.008   1.832  3.2473  0.2186  1.3989
10876SOL     OW34068   6.800   7.530  11.110 -0.3875 -0.2019 -0.4282
10876SOL    HW134069   6.810   7.625  11.102  0.7496 -0.2562  0.0884
10876SOL    HW234070   6.853   7.494  11.040  0.6903 -0.4731  0.5055
10877SOL     OW34071   2.382   3.846   2.862  0.7326 -0.2137  0.6378
10877SOL    HW134072   2.388   3.751   2.848  1.2422 -0.3856  1.9092
10877SOL    HW234073   2.473   3.875   2.862  0.5823  0.2643  0.3900
10878SOL     OW34074   5.119   0.269   2.565 -0.0644 -0.1805 -0.0256
10878SOL    HW134075   5.066   0.229   2.634 -2.1714 -1.7380 -2.3938
10878SOL    HW234076   5.088   0.360   2.560 -0.7695 -0.4008  0.2671
10879SOL     OW34077   4.543   0.378  10.619  0.0942 -0.6754 -0.0414
10879SOL    HW134078   4.501   0.339  10.696  1.3485  0.2156  1.1661
10879SOL    HW234079   4.637   0.372  10.638  0.3840  1.1710 -0.6591
10880SOL     OW34080   3.952   6.417  11.962  0.6531 -0.4839  0.0779
10880SOL    HW134081   4.034   6.466  11.967 -0.3794  1.2973  0.7144
10880SOL    HW234082   3.978   6.325  11.960  2.6303 -0.0049  1.3887
10881SOL     OW34083   0.341   7.317   6.714 -0.2249  0.2135 -0.1818
10881SOL    HW134084   0.371   7.272   6.793  2.2045  0.3237 -0.9471
10881SOL    HW234085   0.246   7.309   6.716 -0.2591  0.5345  2.9055
10882SOL     OW34086   5.105   7.785   5.738  0.6159 -0.2902  0.3571
10882SOL    HW134087   5.118   7.701   5.782  1.5124  0.8320  2.3844
10882SOL    HW234088   5.024   7.819   5.775  0.3851 -0.1451 -0.2685
10883SOL     OW34089   3.472   4.541   3.449 -0.6862  0.3048 -0.3797
10883SOL    HW134090   3.499   4.459   3.408 -1.5473  1.2087 -2.9894
10883SOL    HW234091   3.419   4.514   3.524  0.5941 -1.4701 -0.0443
10884SOL     OW34092   0.125   5.109  10.441 -0.1773  0.2871  0.2431
10884SOL    HW134093   0.090   5.020  10.448 -0.6157  0.5816  2.4964
10884SOL    HW234094   0.171   5.123  10.524  0.2833  1.9955 -0.2727
10885SOL     OW34095   0.984   5.437   2.958  0.2159 -0.0668  0.0830
10885SOL    HW134096   0.905   5.452   2.907 -0.2916  1.0105  1.1522
10885SOL    HW234097   1.054   5.437   2.893 -0.5292  0.2124 -0.7359
10886SOL     OW34098   2.589   7.031   3.017 -0.0479 -0.7340  0.0161
10886SOL    HW134099   2.506   7.020   2.970  0.3829  0.5986 -1.1280
10886SOL    HW234100   2.587   6.963   3.084 -2.7782  0.2363  1.0807
10887SOL     OW34101   0.185   3.281   3.827  0.1183 -0.0586  0.1851
10887SOL    HW134102   0.274   3.284   3.862  0.9055 -2.4539 -1.3443
10887SOL    HW234103   0.197   3.264   3.733 -1.9601  0.0731 -0.1472
10888SOL     OW34104   4.109   6.035   9.733  0.1197  0.1369  0.0010
10888SOL    HW134105   4.133   5.961   9.678  0.0784 -0.8878  1.3256
10888SOL    HW234106   4.050   6.087   9.678  1.4823  0.1041 -1.5367
10889SOL     OW34107   5.105   1.729   4.022 -0.3794  0.0503 -0.4818
10889SOL    HW134108   5.047   1.805   4.027 -2.2540 -1.3836  1.8992
10889SOL    HW234109   5.184   1.756   4.068 -1.5297  0.2572  1.4920
10890SOL     OW34110   7.489   2.311   6.093  0.2119  0.2182 -0.1952
10890SOL    HW134111   7.448   2.234   6.134  0.8141 -0.0996 -0.1844
10890SOL    HW234112   7.417   2.355   6.047 -0.4373  0.4520  0.9968
10891SOL     OW34113   5.979   7.853   2.422 -0.2950 -0.2463  0.1201
10891SOL    HW134114   5.945   7.938   2.449 -1.3882 -0.8455  0.7562
10891SOL    HW234115   5.946   7.841   2.333 -0.7196 -0.2791  0.2764
10892SOL     OW34116   0.106   4.719   0.004  0.3183 -0.2831  0.1525
10892SOL    HW134117   0.158   4.639   0.013 -0.9838 -1.3752 -1.4235
10892SOL    HW234118   0.026   4.702   0.054  0.4299  0.4259  0.5834
10893SOL     OW34119   6.442   6.513   7.579 -0.3471 -0.5116  0.2032
10893SOL    HW134120   6.390   6.511   7.499 -0.9528  0.2350  0.5666
10893SOL    HW234121   6.452   6.421   7.603  0.3566 -0.7830 -1.0449
10894SOL     OW34122   0.391   1.732   8.701 -0.7243 -0.1061 -0.1497
10894SOL    HW134123   0.350   1.707   8.618 -1.0013  2.1109 -0.7598
10894SOL    HW234124   0.407   1.826   8.692  3.0050 -0.4993  0.7134
10895SOL     OW34125   2.034   5.879   4.109  0.1998 -0.1923  0.1352
10895SOL    HW134126   1.965   5.861   4.174  1.4798 -0.2794  1.5251
10895SOL    HW234127   2.095   5.936   4.155  1.6272 -0.9947 -0.7121
10896SOL     OW34128   4.907   4.546  11.585  0.3756  0.0265  0.1094
10896SOL    HW134129   4.959   4.547  11.505  1.2426  1.6322  0.6511
10896SOL    HW234130   4.952   4.483  11.642  0.5612 -0.0815 -0.1554
10897SOL     OW34131   7.749   5.434   1.652  0.6044 -0.5253  0.3323
10897SOL    HW134132   7.694   5.431   1.730 -0.9988  1.0418 -0.6748
10897SOL    HW234133   7.739   5.523   1.618  0.5777 -1.3782 -2.1118
10898SOL     OW34134   6.483   2.148   9.928  0.0729  0.3044 -0.1991
10898SOL    HW134135   6.479   2.059   9.892 -0.0573  0.5004 -0.6731
10898SOL    HW234136   6.402   2.190   9.897  0.6392  0.9258 -0.8655
10899SOL     OW34137   6.712   0.834   9.680  0.4551  0.3364  0.1612
10899SOL    HW134138   6.717   0.770   9.750  1.4010 -2.2958 -2.1254
10899SOL    HW234139   6.784   0.895   9.698  2.7040 -2.0683 -0.0259
10900SOL     OW34140   0.522   4.637  12.239 -0.0796  0.1638  0.2799
10900SOL    HW134141   0.612   4.614  12.215 -1.0230 -0.4793 -3.0617
10900SOL    HW234142   0.483   4.555  12.269 -0.4558 -0.3788 -1.5691
10901SOL     OW34143   2.743   1.475   0.584  0.2288 -0.1083 -0.0702
10901SOL    HW134144   2.688   1.413   0.631 -0.6419  0.8700  0.2372
10901SOL    HW234145   2.741   1.446   0.493 -0.4212 -0.3478  0.0202
10902SOL     OW34146   4.372   0.346  11.516 -0.4909  0.1791  0.0561
10902SOL    HW134147   4.457   0.309  11.539  0.0849  1.9017  0.8771
10902SOL    HW234148   4.323   0.273  11.479  1.5411 -0.7198 -1.0008
10903SOL     OW34149   0.902   3.828   8.156  0.4826 -0.0743  0.4724
10903SOL    HW134150   0.899   3.812   8.062 -0.8831  1.2907  0.2442
10903SOL    HW234151   0.979   3.882   8.168  0.3302  0.2464  0.0425
10904SOL     OW34152   6.531   3.770   9.726  0.5044 -0.1394  0.0403
10904SOL    HW134153   6.584   3.826   9.783  1.8304 -0.4927 -0.7932
10904SOL    HW234154   6.477   3.831   9.677  0.3034  0.2537  0.7320
10905SOL     OW34155   6.831   1.866  11.825  0.0340  0.7094  0.5692
10905SOL    HW134156   6.773   1.905  11.890  0.8651  0.1595  1.6761
10905SOL    HW234157   6.914   1.913  11.835  0.4093  0.0869  0.4728
10906SOL     OW34158   6.608   6.285  10.526 -0.6311  0.2441  0.1348
10906SOL    HW134159   6.591   6.236  10.445  0.8040  1.8571 -1.2193
10906SOL    HW234160   6.521   6.306  10.560 -1.2699 -1.8927 -0.0515
10907SOL     OW34161   1.866   6.558   1.135 -0.2334 -0.2917 -0.5863
10907SOL    HW134162   1.778   6.548   1.098 -2.9264 -0.0050  4.8255
10907SOL    HW234163   1.900   6.469   1.138 -0.8931 -0.5958 -1.4523
10908SOL     OW34164   0.166   6.891   3.049 -0.7377 -0.1891  0.3763
10908SOL    HW134165   0.176   6.830   3.122 -0.9291 -2.0143 -1.0646
10908SOL    HW234166   0.133   6.838   2.977 -0.4022  1.5167 -1.1106
10909SOL     OW34167   5.207   3.632   6.894  0.1266 -0.1374  0.2223
10909SOL    HW134168   5.189   3.552   6.845  0.6639 -0.7581  1.0048
10909SOL    HW234169   5.127   3.684   6.886 -1.2375 -1.8601  1.7885
10910SOL     OW34170   7.396   4.712   4.898  0.0813 -0.0085 -0.4748
10910SOL    HW134171   7.355   4.793   4.869 -1.0507 -0.8308 -1.2099
10910SOL    HW234172   7.339   4.680   4.968  1.0193  0.2717  0.4528
10911SOL     OW34173   2.024   4.906  10.297 -0.2219 -0.1559  0.4263
10911SOL    HW134174   1.985   4.908  10.384 -0.3596  0.6168  0.3490
10911SOL    HW234175   2.004   4.992  10.259 -2.2729 -1.2948 -1.2962
10912SOL     OW34176   1.593   3.714   4.274 -0.1505 -0.0424 -0.0847
10912SOL    HW134177   1.573   3.635   4.323 -0.7005  0.5510  0.6613
10912SOL    HW234178   1.670   3.691   4.221  2.4611  0.1359  3.2577
10913SOL     OW34179   2.533   4.503   7.779  0.2797 -0.1639 -0.5224
10913SOL    HW134180   2.602   4.442   7.756  0.8524  1.0839 -2.3928
10913SOL    HW234181   2.460   4.448   7.808  1.8051 -1.5222  0.9121
10914SOL     OW34182   7.191   5.425   6.010 -0.0348  0.1476 -0.5662
10914SOL    HW134183   7.255   5.424   5.939  2.0302 -2.0558  1.1837
10914SOL    HW234184   7.147   5.340   6.004 -1.2542  0.7360 -0.3598
10915SOL     OW34185   7.749   1.765   0.083 -0.7197  0.2504  0.6706
10915SOL    HW134186   7.741   1.729  -0.006  0.9260  1.3700  0.0349
10915SOL    HW234187   7.715   1.854   0.075 -1.1170  0.1598  1.3197
10916SOL     OW34188   5.180   3.577  10.539 -0.7197  0.1592 -0.3253
10916SOL    HW134189   5.227   3.541  10.464 -0.0644  0.7597 -0.2116
10916SOL    HW234190   5.150   3.500  10.588 -0.4864 -0.2295 -0.7876
10917SOL     OW34191   1.318   6.756   2.482 -0.0934 -0.1534 -0.0833
10917SOL    HW134192   1.402   6.741   2.525  0.9216  1.5034 -1.3839
10917SOL    HW234193   1.277   6.827   2.533 -1.0666 -1.4040  0.9578
10918SOL     OW34194   1.616   5.772   5.635  0.0905 -0.3647 -0.2168
10918SOL    HW134195   1.638   5.786   5.543  1.7940 -1.4971 -0.0457
10918SOL    HW234196   1.566   5.691   5.636 -0.7487  0.1446 -0.2205
10919SOL     OW34197   4.620   0.276   0.561  0.2571 -0.1270  0.3276
10919SOL    HW134198   4.670   0.355   0.539 -1.9082  0.7862 -1.7980
10919SOL    HW234199   4.686   0.206   0.563  2.0311  1.4577  0.8357
10920SOL     OW34200   0.720   0.502   3.774 -0.0856  0.4039  0.0385
10920SOL    HW134201   0.795   0.449   3.749 -0.6961 -0.0894 -0.8189
10920SOL    HW234202   0.747   0.592   3.756 -0.2892  0.1113 -1.9545
10921SOL     OW34203   3.387   2.671   8.942  0.0056  0.3728  0.2107
10921SOL    HW134204   3.324   2.679   9.014  1.1266  1.2591  1.1294
10921SOL    HW234205   3.455   2.736   8.962  1.4622 -0.8751 -0.4881
10922SOL     OW34206   5.549   0.717   1.884 -0.0527 -0.2521 -0.0648
10922SOL    HW134207   5.499   0.636   1.867 -1.0352  0.3376 -0.0658
10922SOL    HW234208   5.639   0.687   1.897 -0.8152 -1.7162  2.7798
10923SOL     OW34209   3.764   4.214  11.058 -0.1694  0.3130  0.5721
10923SOL    HW134210   3.736   4.165  11.135 -1.0668 -2.6159 -1.4734
10923SOL    HW234211   3.702   4.287  11.052 -0.3005  0.3813  2.3811
10924SOL     OW34212   7.811   0.876   8.993 -0.5372  0.2974 -0.1609
10924SOL    HW134213   7.833   0.783   9.004 -0.8046  0.1235 -1.0394
10924SOL    HW234214   7.732   0.876   8.940 -0.9173  1.0169  0.3980
10925SOL     OW34215   1.112   0.255   6.924 -0.2965 -0.2180 -0.8200
10925SOL    HW134216   1.139   0.267   6.834 -1.2616  2.4840 -0.8462
10925SOL    HW234217   1.175   0.306   6.975 -0.5092 -0.6741 -0.0829
10926SOL     OW34218   5.386   3.638   5.176 -0.6118  0.0996 -0.0281
10926SOL    HW134219   5.314   3.625   5.114  0.9936 -0.7708 -1.8047
10926SOL    HW234220   5.434   3.714   5.142  0.5424 -0.6607 -0.1605
10927SOL     OW34221   4.931   5.048   8.857  0.8218 -0.3796 -0.7611
10927SOL    HW134222   4.930   4.967   8.909 -0.0143 -0.8720 -1.5174
10927SOL    HW234223   4.851   5.043   8.805 -0.4057  1.9880  0.7313
10928SOL     OW34224   1.569   2.184   0.511  0.0711 -0.1910 -0.0661
10928SOL    HW134225   1.603   2.126   0.579  0.0397 -0.6837 -0.4683
10928SOL    HW234226   1.565   2.130   0.433 -2.7158 -0.5385  0.2037
10929SOL     OW34227   3.687   5.278   5.266 -0.4977  0.1941  0.3884
10929SOL    HW134228   3.634   5.357   5.254 -0.9314 -0.0685  0.5638
10929SOL    HW234229   3.639   5.226   5.329  0.0864  0.0501  0.7212
10930SOL     OW34230   1.719   5.149   7.100 -0.3780  0.3241  0.3132
10930SOL    HW134231   1.710   5.109   7.186  0.9748 -0.3479  0.1740
10930SOL    HW234232   1.663   5.096   7.043  1.4421 -1.5204  0.1145
10931SOL     OW34233   1.698   1.630   4.458 -0.1097  0.3057  0.3841
10931SOL    HW134234   1.733   1.645   4.546 -2.3189  2.6457  1.0013
10931SOL    HW234235   1.686   1.718   4.422 -1.4447 -0.5260 -1.3564
10932SOL     OW34236   0.309   1.728   8.995 -0.5145  0.6085  0.1980
10932SOL    HW134237   0.311   1.742   8.900 -3.1317  2.5730  0.3109
10932SOL    HW234238   0.391   1.682   9.015 -0.5557 -1.1785 -3.1562
10933SOL     OW34239   5.587   0.285   0.224 -0.2795  0.1021  0.2336
10933SOL    HW134240   5.673   0.321   0.247 -0.0746 -0.8206  0.9492
10933SOL    HW234241   5.603   0.240   0.141 -0.9995  3.3428 -1.8589
10934SOL     OW34242   4.175   0.563   5.461  0.0887  0.2218 -0.0364
10934SOL    HW134243   4.194   0.643   5.509  1.0541  0.4001 -0.6810
10934SOL    HW234244   4.082   0.567   5.443  0.4118  2.0474 -1.5475
10935SOL     OW34245   3.140   3.097   7.921  0.4817 -0.1923 -0.5432
10935SOL    HW134246   3.227   3.124   7.950  0.9130 -1.2658 -0.7871
10935SOL    HW234247   3.147   3.091   7.826 -0.3305  1.2639 -0.7337
10936SOL     OW34248   7.512   6.475  10.264 -0.1093 -0.3690  0.3009
10936SOL    HW134249   7.483   6.387  10.287 -1.0246  0.1372  1.2039
10936SOL    HW234250   7.517   6.475  10.169  0.1036 -1.4459  0.2966
10937SOL     OW34251   2.478   2.593  10.471 -0.3680  0.4115 -0.1020
10937SOL    HW134252   2.569   2.577  10.445 -0.7356 -1.2690 -0.5092
10937SOL    HW234253   2.482   2.603  10.566 -0.0785 -3.0702  0.3796
10938SOL     OW34254   1.544   7.870   2.548  0.0805  0.3100  0.6925
10938SOL    HW134255   1.620   7.902   2.500 -1.2337  2.4702 -0.1102
10938SOL    HW234256   1.580   7.808   2.612  2.1092 -1.0958 -1.6599
10939SOL     OW34257   2.662   0.447   4.737  0.1119 -0.0852  0.5838
10939SOL    HW134258   2.617   0.513   4.790  0.3403  0.1808  0.4484
10939SOL    HW234259   2.713   0.497   4.674 -0.7833 -0.4060 -0.4244
10940SOL     OW34260   0.899   2.836   2.630  0.1602 -0.7423 -0.4569
10940SOL    HW134261   0.935   2.748   2.615 -0.0247 -0.8062 -0.5259
10940SOL    HW234262   0.804   2.822   2.638  0.2768 -0.7931  1.2830
10941SOL     OW34263   7.411   3.556   2.930  0.6885 -0.6411 -0.5345
10941SOL    HW134264   7.317   3.565   2.944  0.5838  0.4113 -1.7667
10941SOL    HW234265   7.450   3.625   2.983  0.8268 -1.4459  0.4385
10942SOL     OW34266   4.955   5.718   7.854  0.5685 -0.9597 -0.5744
10942SOL    HW134267   5.011   5.650   7.817  4.2312  1.5627 -0.2340
10942SOL    HW234268   4.961   5.705   7.949 -0.8710 -1.6221 -0.5436
10943SOL     OW34269   7.626   2.619   3.832  0.1829  0.7887 -0.5463
10943SOL    HW134270   7.655   2.710   3.842 -1.3677  1.3313 -0.5902
10943SOL    HW234271   7.678   2.585   3.759  0.9826  1.5523 -0.3513
10944SOL     OW34272   4.413   7.449  11.558 -0.3650  0.1233  0.7847
10944SOL    HW134273   4.454   7.532  11.536 -3.4671  1.2941 -1.3140
10944SOL    HW234274   4.330   7.472  11.599 -1.5806 -1.8446 -0.3468
10945SOL     OW34275   5.202   7.553   5.880 -0.3219  0.1197 -0.4922
10945SOL    HW134276   5.281   7.584   5.923 -0.9473  3.0371 -1.2631
10945SOL    HW234277   5.231   7.525   5.793  0.2596 -1.7496  0.2459
10946SOL     OW34278   5.085   6.507   2.863  0.2568 -0.2272 -0.4818
10946SOL    HW134279   5.072   6.484   2.955  2.2507 -1.8056 -0.5345
10946SOL    HW234280   5.180   6.506   2.851  0.0355 -0.2966 -2.6190
10947SOL     OW34281   1.456   7.480   1.562 -1.2244 -0.7095  0.2452
10947SOL    HW134282   1.453   7.573   1.540  4.8259 -0.4595 -1.2639
10947SOL    HW234283   1.442   7.435   1.478 -0.3569 -0.9231  0.2091
10948SOL     OW34284   4.229   7.194   8.481 -0.4675  0.1051  0.4472
10948SOL    HW134285   4.165   7.180   8.411 -0.0694 -0.6672  0.2328
10948SOL    HW234286   4.196   7.271   8.528 -0.2057  1.2674 -1.1867
10949SOL     OW34287   2.652   6.480   9.879  0.4322 -0.2302  0.4593
10949SOL    HW134288   2.562   6.460   9.906  0.2953 -0.2919 -0.0312
10949SOL    HW234289   2.664   6.432   9.798  1.3745 -1.3081  1.1996
10950SOL     OW34290   4.502   4.825  12.145  1.1730  0.1224  0.2814
10950SOL    HW134291   4.561   4.813  12.220 -1.4437 -0.8649  2.3798
10950SOL    HW234292   4.444   4.896  12.173 -0.4605 -0.9147 -0.3387
10951SOL     OW34293   4.816   0.523   3.485 -0.2102 -0.2213  0.0160
10951SOL    HW134294   4.738   0.484   3.524  0.0448 -0.9463 -0.1859
10951SOL    HW234295   4.867   0.449   3.454  0.4681  0.2561 -0.0348
10952SOL     OW34296   5.361   3.857  11.782  0.5986  0.7545  0.0254
10952SOL    HW134297   5.310   3.778  11.765 -1.5247  1.7065  1.6076
10952SOL    HW234298   5.386   3.888  11.695 -1.9417  0.4836 -0.8893
10953SOL     OW34299   1.346   3.196   6.704 -0.2799 -0.0364 -0.4693
10953SOL    HW134300   1.274   3.247   6.739 -0.1434 -0.2708  0.1641
10953SOL    HW234301   1.405   3.261   6.665 -0.6695  0.1809 -0.7029
10954SOL     OW34302   0.255   4.406  10.095  0.0334 -0.2161 -0.0929
10954SOL    HW134303   0.258   4.501  10.088  0.4432 -0.2520 -0.4298
10954SOL    HW234304   0.250   4.389  10.189 -1.7521  0.1765 -0.0749
10955SOL     OW34305   1.280   3.594   3.333 -0.0138  0.1208  0.5826
10955SOL    HW134306   1.333   3.526   3.374  0.0602  0.0974  0.4505
10955SOL    HW234307   1.231   3.549   3.265 -1.3004 -0.1294  1.6341
10956SOL     OW34308   6.847   5.461   1.069  0.7510 -0.2659  0.0691
10956SOL    HW134309   6.903   5.502   1.003  1.9105 -0.6163  0.8068
10956SOL    HW234310   6.894   5.381   1.093  0.7351  0.2189  1.8374
10957SOL     OW34311   0.564   7.659   6.501 -0.0654 -0.3061  0.4693
10957SOL    HW134312   0.641   7.614   6.466 -0.7606 -1.0442 -0.1516
10957SOL    HW234313   0.593   7.695   6.584  1.1192 -0.0731 -0.0226
10958SOL     OW34314   5.424   5.923   9.046  0.0973  0.1068  0.1301
10958SOL    HW134315   5.394   5.840   9.083 -1.2559  0.0989 -0.9261
10958SOL    HW234316   5.518   5.911   9.033  0.0723 -0.9313  0.8098
10959SOL     OW34317   7.568   0.435   9.250 -0.0382  0.2648  0.1486
10959SOL    HW134318   7.661   0.430   9.229  0.1299 -1.9680  1.1617
10959SOL    HW234319   7.524   0.404   9.171 -0.1355  3.0805 -1.0493
10960SOL     OW34320   0.094   5.768  10.845 -0.2899  0.3073 -0.4870
10960SOL    HW134321  -0.001   5.778  10.847 -0.3607 -0.4797  0.8787
10960SOL    HW234322   0.109   5.673  10.844  0.4792  0.4099  0.0092
10961SOL     OW34323   6.362   0.015   9.229 -0.4122 -0.6110  0.3445
10961SOL    HW134324   6.398  -0.061   9.183 -2.3774 -1.3874 -0.0188
10961SOL    HW234325   6.360   0.084   9.163  0.0936 -0.6521  0.2819
10962SOL     OW34326   1.792   7.406   9.794  0.4181  0.1154  0.1269
10962SOL    HW134327   1.875   7.443   9.765  0.4627 -0.7492 -0.8958
10962SOL    HW234328   1.805   7.311   9.793 -0.8597 -0.0821 -0.9559
10963SOL     OW34329   4.222   2.372   3.838  0.0590 -0.2783  0.0204
10963SOL    HW134330   4.259   2.304   3.782 -0.6205  0.2397 -1.0878
10963SOL    HW234331   4.228   2.452   3.786 -1.0686  0.1156  0.4706
10964SOL     OW34332   4.753   2.861   7.109 -0.3381  0.1207  0.0416
10964SOL    HW134333   4.675   2.821   7.146 -0.4241 -0.6350 -0.9083
10964SOL    HW234334   4.743   2.954   7.126 -1.5150  0.0460 -0.1884
10965SOL     OW34335   0.882   3.587   1.188 -0.0433 -0.5241  0.3654
10965SOL    HW134336   0.825   3.644   1.240  1.0405  0.4211  0.5685
10965SOL    HW234337   0.971   3.610   1.216  0.5121 -0.8235 -1.0578
10966SOL     OW34338   7.605   5.319  10.479  0.8508 -0.4242  0.6983
10966SOL    HW134339   7.531   5.380  10.492 -0.6568 -1.7519 -1.0825
10966SOL    HW234340   7.682   5.375  10.482 -0.4243  1.5044 -0.1361
10967SOL     OW34341   6.212   3.297   9.370  1.0805  0.1724 -0.5708
10967SOL    HW134342   6.179   3.236   9.305 -0.7328  2.1509 -1.6551
10967SOL    HW234343   6.160   3.280   9.448  0.4284  0.4357 -0.9376
10968SOL     OW34344   6.554   0.069   9.886  0.2398  0.2286  0.2591
10968SOL    HW134345   6.521  -0.012   9.848 -0.7967 -0.6858  2.9213
10968SOL    HW234346   6.588   0.044   9.972  1.4351  2.3702  0.5013
10969SOL     OW34347   0.782   6.235   8.486  0.6817  0.4098  0.5472
10969SOL    HW134348   0.731   6.215   8.407  1.8751  0.5171 -0.2778
10969SOL    HW234349   0.772   6.329   8.498  1.5347  0.6214 -0.2560
10970SOL     OW34350   7.554   2.187  11.762 -0.0169  0.0659  0.0854
10970SOL    HW134351   7.557   2.148  11.850  0.2006 -2.0809 -0.8207
10970SOL    HW234352   7.636   2.236  11.755  0.7866 -1.1691  0.4876
10971SOL     OW34353   2.664   5.144   7.645 -0.0968 -0.6530  0.3869
10971SOL    HW134354   2.576   5.128   7.610 -0.0764 -0.5711  0.2983
10971SOL    HW234355   2.660   5.109   7.734 -0.2745 -0.4868  0.4465
10972SOL     OW34356   5.863   4.006   1.855 -0.1414  0.1372 -0.1261
10972SOL    HW134357   5.943   4.033   1.810  1.5330 -1.7726  1.4624
10972SOL    HW234358   5.861   4.058   1.935  0.6971 -1.2322  0.8257
10973SOL     OW34359   5.798   5.948   3.039  0.1135  0.5582 -0.1605
10973SOL    HW134360   5.815   6.001   3.117  1.5099  0.3890 -0.3220
10973SOL    HW234361   5.820   6.006   2.966 -1.0382  0.6646 -0.4398
10974SOL     OW34362   6.400   4.269   3.645 -0.2514 -0.0044 -0.1451
10974SOL    HW134363   6.426   4.188   3.690  0.2733  0.6123  0.6858
10974SOL    HW234364   6.373   4.328   3.715  0.4281  0.9183 -0.6347
10975SOL     OW34365   0.481   5.149   3.786 -0.0957 -0.2859 -0.2609
10975SOL    HW134366   0.570   5.176   3.760  0.2408 -1.1995 -0.1046
10975SOL    HW234367   0.456   5.212   3.853  0.5299 -0.1535 -0.1410
10976SOL     OW34368   3.977   6.403   9.967  0.4284 -0.6633 -0.2155
10976SOL    HW134369   3.892   6.429   9.932  0.7290  0.5841 -0.0838
10976SOL    HW234370   3.963   6.316  10.004 -1.0026 -0.1519  0.5352
10977SOL     OW34371   0.167   0.602   2.904 -0.0569  0.3517  0.6978
10977SOL    HW134372   0.115   0.522   2.915  0.6706 -0.1713  0.4322
10977SOL    HW234373   0.119   0.652   2.838  1.9246 -2.1172 -3.0025
10978SOL     OW34374   3.141   2.837   0.131 -0.0721 -0.4674  0.0001
10978SOL    HW134375   3.188   2.757   0.152 -0.6399 -0.6837  0.4805
10978SOL    HW234376   3.207   2.906   0.130  0.6677 -1.1474 -1.7892
10979SOL     OW34377   7.099   4.076   0.604  0.4348  0.4294  0.0548
10979SOL    HW134378   7.012   4.062   0.641  0.2526  1.2337 -0.0303
10979SOL    HW234379   7.095   4.034   0.518 -0.0719  0.9525 -0.1871
10980SOL     OW34380   7.803   2.499   5.009 -0.5320 -0.3948  0.0632
10980SOL    HW134381   7.764   2.564   5.067  0.4778  0.4770 -0.2049
10980SOL    HW234382   7.730   2.443   4.983 -1.1827 -0.1756  1.3424
10981SOL     OW34383   7.575   3.175   0.526  0.0971 -0.3531 -0.2046
10981SOL    HW134384   7.627   3.255   0.535 -0.0536 -0.3583  0.9134
10981SOL    HW234385   7.638   3.108   0.498 -0.0840  0.4810 -2.8784
10982SOL     OW34386   5.447   5.934   6.889  0.0405  0.3007  0.5846
10982SOL    HW134387   5.465   5.992   6.963  0.2081 -1.5507  2.0647
10982SOL    HW234388   5.355   5.911   6.897  0.5176 -1.4927  1.4696
10983SOL     OW34389   1.595   6.637  11.720 -0.6165  0.2498  0.1195
10983SOL    HW134390   1.504   6.667  11.721 -1.2461 -1.4818  1.9124
10983SOL    HW234391   1.620   6.635  11.812  1.7450  1.9722 -0.4045
10984SOL     OW34392   7.729   5.152   4.486 -0.5288  0.1215  0.1243
10984SOL    HW134393   7.815   5.170   4.524  0.2564 -1.5990 -0.7115
10984SOL    HW234394   7.693   5.084   4.542 -1.1805  0.5542  0.2324
10985SOL     OW34395   6.557   3.931   2.533  0.3088  0.1377  0.2824
10985SOL    HW134396   6.605   4.004   2.571  0.2632  0.7608 -0.8290
10985SOL    HW234397   6.578   3.856   2.590 -0.2959  1.1652  1.9156
10986SOL     OW34398   5.003   1.751   4.993  0.8304 -0.5101 -0.0712
10986SOL    HW134399   4.938   1.765   4.925 -0.2893 -2.6802  0.4693
10986SOL    HW234400   4.952   1.745   5.074  1.8673 -0.7559  0.5781
10987SOL     OW34401   6.122   3.127   7.338 -0.2649  0.0677  0.7023
10987SOL    HW134402   6.193   3.170   7.291 -0.1196  1.1182  1.8210
10987SOL    HW234403   6.043   3.150   7.290 -0.0119  0.2155  0.3538
10988SOL     OW34404   1.835   5.790   8.107  0.4469 -0.2254  0.0397
10988SOL    HW134405   1.922   5.759   8.082  0.8912  0.6875  0.4102
10988SOL    HW234406   1.852   5.860   8.171 -0.5655 -0.2575  0.3549
10989SOL     OW34407   6.729   3.166   4.835 -0.1614  0.5502 -0.1023
10989SOL    HW134408   6.811   3.116   4.840  0.6249  1.5656 -1.8947
10989SOL    HW234409   6.752   3.253   4.868 -1.0212  0.3257  1.1510
10990SOL     OW34410   4.504   5.159  12.004 -0.0998  0.1277  0.0490
10990SOL    HW134411   4.505   5.158  11.908 -1.7595 -0.4279  0.0020
10990SOL    HW234412   4.428   5.213  12.027  1.0386  1.3482  1.0850
10991SOL     OW34413   2.364   2.427   1.696 -0.6386 -0.4306 -0.0780
10991SOL    HW134414   2.457   2.447   1.688 -0.3942 -1.4061  0.1981
10991SOL    HW234415   2.349   2.424   1.791 -1.0430  0.0814 -0.1181
10992SOL     OW34416   3.073   7.530   0.095 -0.1494 -0.2194  0.1608
10992SOL    HW134417   3.158   7.490   0.074 -0.2793 -0.3054 -0.1994
10992SOL    HW234418   3.094   7.621   0.118 -0.0405 -0.0400 -0.6340
10993SOL     OW34419   0.060   7.412   5.976  0.2555 -0.2248 -0.4883
10993SOL    HW134420   0.067   7.497   5.933 -1.2103 -0.1999 -0.7354
10993SOL    HW234421   0.149   7.377   5.975  0.3298 -0.1407 -3.3274
10994SOL     OW34422   6.776   6.704   7.468 -0.2707  0.2117  0.5656
10994SOL    HW134423   6.688   6.672   7.448 -0.0736 -0.4589  0.7433
10994SOL    HW234424   6.809   6.735   7.384 -1.4004  2.3199  0.8426
10995SOL     OW34425   5.815   0.970  11.167  0.8969  0.7443 -0.2916
10995SOL    HW134426   5.861   0.947  11.248  0.5822 -0.7807 -0.5085
10995SOL    HW234427   5.800   1.064  11.174 -1.2275  0.3425  2.5616
10996SOL     OW34428   4.618   1.059   4.957  0.1733 -0.0409 -0.3145
10996SOL    HW134429   4.603   1.153   4.950 -0.3478  0.0046  1.1766
10996SOL    HW234430   4.703   1.051   4.999  0.0268 -0.2362 -0.0528
10997SOL     OW34431   3.034   6.952  10.522 -0.3234  0.1793  0.0029
10997SOL    HW134432   2.949   6.993  10.542  0.0344  0.4056  1.0934
10997SOL    HW234433   3.034   6.871  10.572  0.4042  0.5388  0.5983
10998SOL     OW34434   5.083   2.101   4.074 -0.2970 -0.3729  0.7251
10998SOL    HW134435   5.082   2.174   4.012  0.2326 -0.8701  0.1093
10998SOL    HW234436   5.079   2.142   4.160  0.2812  0.3957  0.3974
10999SOL     OW34437   4.368   1.203   6.244  0.2410  0.1049  0.3164
10999SOL    HW134438   4.287   1.157   6.265  0.3074 -0.6191 -0.8975
10999SOL    HW234439   4.348   1.295   6.261 -1.3145  0.1129 -1.2012
11000SOL     OW34440   7.115   4.610   8.056  0.3827 -0.5189 -0.3834
11000SOL    HW134441   7.192   4.594   8.112  1.5836  1.9490 -1.1888
11000SOL    HW234442   7.050   4.646   8.115  0.0899 -1.8711  0.1579
11001SOL     OW34443   3.964   0.713   5.328  0.1508  0.6615  0.8005
11001SOL    HW134444   3.882   0.689   5.284  1.5652 -1.5623 -0.8077
11001SOL    HW234445   4.008   0.771   5.266  0.6540  0.2675  0.7888
11002SOL     OW34446   6.860   3.851   5.547 -0.0094 -0.0763  0.0829
11002SOL    HW134447   6.888   3.902   5.623 -2.1642  2.1626 -0.5079
11002SOL    HW234448   6.787   3.798   5.578 -0.8683  0.8140 -0.3704
11003SOL     OW34449   6.855   4.364   0.685  0.4829  0.1432  0.5859
11003SOL    HW134450   6.932   4.418   0.704  0.6996 -0.1561  0.5678
11003SOL    HW234451   6.880   4.276   0.714  1.1176 -0.5177 -1.7300
11004SOL     OW34452   1.695   4.240   3.685 -0.4750  0.0108 -0.1001
11004SOL    HW134453   1.773   4.199   3.648 -0.4411 -1.4061  1.4273
11004SOL    HW234454   1.716   4.251   3.777 -1.1954  1.8708 -0.1266
11005SOL     OW34455   2.009   4.932   7.707  0.1642  0.0856 -0.0653
11005SOL    HW134456   1.930   4.889   7.673  0.6841 -1.4962  0.6322
11005SOL    HW234457   2.067   4.938   7.631 -0.2114  0.2980 -0.3417
11006SOL     OW34458   5.651   1.682   2.802 -0.1391 -0.2999  0.0633
11006SOL    HW134459   5.735   1.641   2.780  0.3108 -0.1169  1.3593
11006SOL    HW234460   5.652   1.765   2.755 -1.2639 -1.8693 -2.9891
11007SOL     OW34461   7.354   5.997   6.458 -0.0861  0.4655 -0.4834
11007SOL    HW134462   7.417   6.069   6.467 -1.5900  1.7066  0.7077
11007SOL    HW234463   7.290   6.029   6.394 -0.3633 -0.1368 -0.5192
11008SOL     OW34464   5.921   3.601   5.678 -0.3883 -0.0009 -0.0919
11008SOL    HW134465   5.978   3.540   5.631  0.1640 -1.7123  2.5673
11008SOL    HW234466   5.958   3.687   5.663  0.7769 -0.6883 -1.3036
11009SOL     OW34467   0.156   3.470  11.773  0.0696 -0.1029  0.2146
11009SOL    HW134468   0.138   3.377  11.788  0.5275 -0.5356 -1.5810
11009SOL    HW234469   0.210   3.471  11.694 -1.5731  1.8010 -0.9859
11010SOL     OW34470   0.989   2.790   2.905  0.1565  0.4604  0.4453
11010SOL    HW134471   0.914   2.797   2.845  0.4327 -1.9615 -0.2721
11010SOL    HW234472   1.057   2.748   2.854  0.9043 -0.3528  2.0326
11011SOL     OW34473   0.016   2.256  10.966 -0.4630 -0.0645  0.2017
11011SOL    HW134474   0.096   2.301  10.938 -0.5953  0.1242  0.1312
11011SOL    HW234475  -0.054   2.298  10.917 -0.4060 -1.4728 -1.1734
11012SOL     OW34476   6.937   0.377   8.879  0.9306  0.5265  0.0883
11012SOL    HW134477   7.011   0.326   8.845  0.5078  0.2622 -0.4441
11012SOL    HW234478   6.978   0.440   8.939  1.4593 -0.4608  0.7984
11013SOL     OW34479   7.865   5.207   1.510  0.9069  0.2617 -0.2299
11013SOL    HW134480   7.833   5.284   1.556  2.4017 -0.1521  1.6291
11013SOL    HW234481   7.867   5.138   1.576 -1.9066 -1.9182 -2.1895
11014SOL     OW34482   6.893   7.768   4.648 -0.4676 -0.6366 -0.1378
11014SOL    HW134483   6.827   7.706   4.680 -1.8933  0.3214 -1.1380
11014SOL    HW234484   6.953   7.715   4.596 -0.6503 -1.4538  0.4623
11015SOL     OW34485   4.543   1.605   8.169 -0.8414 -0.3831  0.1563
11015SOL    HW134486   4.523   1.698   8.156 -0.7890 -0.4672 -0.6150
11015SOL    HW234487   4.517   1.564   8.086 -1.5432 -1.1723  0.7474
11016SOL     OW34488   6.906   2.298   7.791  0.0545 -0.3366 -0.5064
11016SOL    HW134489   6.845   2.230   7.819  0.3586 -0.2510  0.3699
11016SOL    HW234490   6.857   2.349   7.726 -2.2431  2.0879  2.7967
11017SOL     OW34491   5.306   7.583   6.490  0.6068 -1.0882  0.4552
11017SOL    HW134492   5.259   7.582   6.573  0.7815  0.8140  0.6199
11017SOL    HW234493   5.398   7.569   6.513  1.1167  2.3606  1.0182
11018SOL     OW34494   3.743   3.475   7.919  1.3165  0.6072 -0.0024
11018SOL    HW134495   3.796   3.475   7.999  0.8156  0.1881  0.3341
11018SOL    HW234496   3.668   3.419   7.939  1.4045  0.1337 -0.9131
11019SOL     OW34497   0.674   1.620  11.763  0.3692  0.0805 -0.3267
11019SOL    HW134498   0.593   1.574  11.741 -0.4330  1.0617  0.4565
11019SOL    HW234499   0.657   1.657  11.850  0.8856  2.0555 -1.0258
11020SOL     OW34500   7.171   1.928   1.840 -0.3671 -0.5144  0.0674
11020SOL    HW134501   7.181   1.836   1.863 -1.0006 -0.1834  1.8463
11020SOL    HW234502   7.094   1.930   1.783 -0.3536 -1.0866  0.0212
11021SOL     OW34503   3.406   2.275   9.722 -0.2493  0.3502 -0.5322
11021SOL    HW134504   3.420   2.319   9.805  0.1034 -0.6561 -0.0438
11021SOL    HW234505   3.438   2.337   9.656  0.1260  0.8658  0.1255
11022SOL     OW34506   0.482   6.696   0.428 -0.8448  0.2084  0.4280
11022SOL    HW134507   0.506   6.717   0.338  2.8150 -0.4319  1.1146
11022SOL    HW234508   0.435   6.613   0.421 -0.0507 -0.1637 -0.8607
11023SOL     OW34509   0.381   1.301   1.594  0.0437 -0.7654 -0.9154
11023SOL    HW134510   0.386   1.257   1.510 -3.2974 -1.9714 -0.6255
11023SOL    HW234511   0.359   1.232   1.657 -1.7435  0.7040  0.1851
11024SOL     OW34512   6.584   2.121   7.612  0.0086  0.3618 -0.2799
11024SOL    HW134513   6.619   2.209   7.629  0.2340  0.0139  1.2018
11024SOL    HW234514   6.583   2.079   7.698 -2.5121 -0.2119 -0.5038
11025SOL     OW34515   5.329   7.600  12.201 -0.2848  0.5169  0.5564
11025SOL    HW134516   5.333   7.523  12.145  1.0086  0.0527  1.2357
11025SOL    HW234517   5.277   7.664  12.152 -2.0536 -1.0353  0.3059
11026SOL     OW34518   1.451   7.327  10.340 -0.5418 -0.3994  0.9260
11026SOL    HW134519   1.539   7.351  10.369 -0.0143  0.1846 -1.0035
11026SOL    HW234520   1.399   7.324  10.420  1.8097 -3.6035  2.5898
11027SOL     OW34521   5.927   4.502   8.543 -0.2480  0.3927  0.7637
11027SOL    HW134522   5.976   4.554   8.607 -0.1589  2.3135 -0.7583
11027SOL    HW234523   5.994   4.448   8.500  0.0149  0.5512  0.9695
11028SOL     OW34524   1.562   5.453   3.309  0.4548  0.8914 -0.4872
11028SOL    HW134525   1.563   5.499   3.392 -0.9318  0.1382 -0.0285
11028SOL    HW234526   1.492   5.494   3.259  0.6029  0.6644 -0.8886
11029SOL     OW34527   0.386   5.356   0.009  0.6357 -0.6187  0.4144
11029SOL    HW134528   0.418   5.429   0.063 -1.4527  0.5522  0.1751
11029SOL    HW234529   0.446   5.353  -0.065  0.3215  1.4627 -0.0014
11030SOL     OW34530   4.477   2.567   9.985 -0.0049  0.0397 -0.5616
11030SOL    HW134531   4.495   2.474   9.969 -1.3006 -0.1012 -1.2971
11030SOL    HW234532   4.468   2.605   9.898 -1.0811  0.5212 -0.2460
11031SOL     OW34533   4.707   4.629   5.499  0.3488  0.5984 -0.5995
11031SOL    HW134534   4.707   4.634   5.595 -1.0990  0.5549 -0.5854
11031SOL    HW234535   4.628   4.676   5.472 -0.4617 -1.2540 -1.6567
11032SOL     OW34536   2.948   3.804  10.931 -0.3587  0.0218 -0.4830
11032SOL    HW134537   2.964   3.807  11.025 -0.5101 -0.7108 -0.4249
11032SOL    HW234538   3.035   3.801  10.891 -0.2889 -1.6607 -0.2689
11033SOL     OW34539   0.046   3.493   1.859 -0.2000 -0.1449  0.0900
11033SOL    HW134540   0.121   3.438   1.880  1.7157  2.2909  0.0426
11033SOL    HW234541   0.040   3.554   1.932 -1.0021  0.8465 -0.7725
11034SOL     OW34542   2.047   5.427  11.705 -0.4726 -0.5923  0.2060
11034SOL    HW134543   1.980   5.418  11.636  0.4515 -1.1261 -0.6491
11034SOL    HW234544   2.130   5.420  11.658  0.2691  2.3664  0.9229
11035SOL     OW34545   7.458   2.082   6.296 -0.1718  0.9181 -0.4954
11035SOL    HW134546   7.458   2.162   6.348 -0.1285  0.1031  0.7826
11035SOL    HW234547   7.524   2.026   6.336  0.7101  0.6955 -2.1468
11036SOL     OW34548   5.666   6.847   0.909 -0.2159  0.0975 -0.3788
11036SOL    HW134549   5.711   6.931   0.899  1.7833 -0.8913 -0.2876
11036SOL    HW234550   5.691   6.817   0.996  0.7552 -1.4826 -1.1611
11037SOL     OW34551   2.672   2.639   5.933  0.2417 -0.2824 -0.5546
11037SOL    HW134552   2.696   2.577   6.001  0.7570 -0.5753 -0.9986
11037SOL    HW234553   2.580   2.619   5.913  0.4696 -1.0581 -0.8593
11038SOL     OW34554   2.193   5.092   0.424  0.1352  0.2747 -0.1424
11038SOL    HW134555   2.246   5.013   0.430  0.2542  0.3383 -0.3570
11038SOL    HW234556   2.156   5.102   0.512  1.4992  0.9373  0.3884
11039SOL     OW34557   1.538   4.634   6.592 -0.5399 -0.5257 -0.4513
11039SOL    HW134558   1.464   4.574   6.597 -1.0659  0.1666  0.3035
11039SOL    HW234559   1.572   4.638   6.682 -0.1686 -0.1159 -0.6044
11040SOL     OW34560   4.024   1.301   2.523  0.8523  0.5402  0.3443
11040SOL    HW134561   3.986   1.224   2.565 -0.4669  0.8512 -0.2178
11040SOL    HW234562   3.979   1.375   2.564  0.3988  0.8954 -0.7434
11041SOL     OW34563   6.576   4.974  10.824 -0.1559 -0.2320 -0.1038
11041SOL    HW134564   6.538   4.991  10.910 -0.7663  0.2682 -0.4596
11041SOL    HW234565   6.648   4.913  10.840  0.4794  0.7657  0.8935
11042SOL     OW34566   3.566   7.320   1.232 -0.0040  0.9211 -0.0079
11042SOL    HW134567   3.474   7.343   1.238 -0.5773 -1.2030  0.0160
11042SOL    HW234568   3.567   7.228   1.207  2.1046  0.7119  0.6148
11043SOL     OW34569   6.938   7.574   2.612 -0.0701 -0.1094  0.5881
11043SOL    HW134570   6.943   7.649   2.672  2.4353  0.5136 -0.3066
11043SOL    HW234571   7.006   7.591   2.547 -1.4416 -1.7125 -1.3762
11044SOL     OW34572   7.191   2.212   6.189 -0.3798  0.0970 -0.4697
11044SOL    HW134573   7.169   2.283   6.250  1.3817  0.0977  0.2358
11044SOL    HW234574   7.206   2.257   6.106  2.7548  0.9737  0.4153
11045SOL     OW34575   7.801   0.937   0.311 -0.4925  0.7785 -0.3792
11045SOL    HW134576   7.785   0.888   0.230  1.0485  2.5614 -1.8578
11045SOL    HW234577   7.850   0.876   0.367  1.6578  0.6059 -2.2855
11046SOL     OW34578   3.872   1.773   6.193  0.2822  0.4407 -0.3298
11046SOL    HW134579   3.842   1.746   6.106 -0.1759  0.5476 -0.2120
11046SOL    HW234580   3.943   1.835   6.176  3.7620 -3.2721 -0.6096
11047SOL     OW34581   7.042   6.716   6.217 -0.3189 -0.7206 -0.2122
11047SOL    HW134582   6.956   6.736   6.180 -0.3106 -1.5286 -0.6961
11047SOL    HW234583   7.080   6.801   6.237 -0.1184 -0.1808 -2.5583
11048SOL     OW34584   3.719   0.189   6.513 -0.1352 -0.1562  0.0904
11048SOL    HW134585   3.793   0.213   6.458 -0.2151 -0.9350 -0.3731
11048SOL    HW234586   3.658   0.144   6.453 -0.0534 -1.3541  0.8750
11049SOL     OW34587   4.187   4.697   1.329 -0.0698  0.2778  0.0824
11049SOL    HW134588   4.240   4.746   1.266  0.3244  0.5241  0.6005
11049SOL    HW234589   4.251   4.656   1.387 -0.4316  0.2133  0.4388
11050SOL     OW34590   5.991   1.301   2.734  0.2126  0.0625 -0.5340
11050SOL    HW134591   5.944   1.306   2.651 -0.8529  1.2367  0.0937
11050SOL    HW234592   6.071   1.353   2.720  0.0242  0.2750 -0.8271
11051SOL     OW34593   6.542   5.346  11.698 -0.3234  0.2122  0.0861
11051SOL    HW134594   6.506   5.431  11.725 -0.5195  0.4304 -0.8171
11051SOL    HW234595   6.577   5.308  11.779  1.4874  1.9891  0.2456
11052SOL     OW34596   5.958   4.476  12.377 -0.1266  0.3845 -0.1835
11052SOL    HW134597   6.030   4.446  12.432  0.1124 -0.1421 -0.7703
11052SOL    HW234598   5.908   4.397  12.358 -0.4297  0.6257 -0.3979
11053SOL     OW34599   0.271   5.052   8.121 -0.5844 -0.6347  0.0424
11053SOL    HW134600   0.185   5.013   8.108  0.1884 -3.1411  1.6866
11053SOL    HW234601   0.332   4.978   8.119  1.4740  0.9786 -0.4488
11054SOL     OW34602   3.660   1.110   2.194 -0.0855  0.2832 -0.1817
11054SOL    HW134603   3.632   1.136   2.282 -0.5332 -0.4845 -0.0886
11054SOL    HW234604   3.579   1.104   2.144  0.2245  1.4076 -0.8555
11055SOL     OW34605   7.006   4.341   6.005  0.0506  0.5237 -0.2920
11055SOL    HW134606   6.983   4.305   6.090  0.9501 -1.1212 -0.7048
11055SOL    HW234607   7.078   4.401   6.023  0.7568 -0.4007  0.0463
11056SOL     OW34608   7.431   1.809  10.869  0.0155 -0.0676  0.9634
11056SOL    HW134609   7.511   1.801  10.817 -0.6564  0.9931 -0.3144
11056SOL    HW234610   7.444   1.888  10.921 -0.8574  1.1761 -0.5955
11057SOL     OW34611   5.541   3.441  11.195 -0.0063  0.3051 -0.0516
11057SOL    HW134612   5.474   3.462  11.261 -0.4996  0.9474 -0.7379
11057SOL    HW234613   5.611   3.504  11.210 -0.4081  0.8837 -0.5431
11058SOL     OW34614   2.619   2.470   1.669 -0.4478  0.4328  0.5589
11058SOL    HW134615   2.684   2.412   1.710 -0.9180 -0.5162  0.0093
11058SOL    HW234616   2.657   2.557   1.676  0.0329  0.1420  1.9125
11059SOL     OW34617   3.237   6.473   0.313 -0.1270  0.1705  0.0584
11059SOL    HW134618   3.154   6.424   0.307  0.9971 -1.9338  0.4552
11059SOL    HW234619   3.254   6.502   0.224 -0.8069 -0.2425 -0.2166
11060SOL     OW34620   0.582   1.676   2.288 -0.0440 -0.1380  0.2671
11060SOL    HW134621   0.579   1.772   2.285  2.1567  0.0229  1.1133
11060SOL    HW234622   0.674   1.655   2.272 -0.9655 -2.3358 -3.2809
11061SOL     OW34623   3.172   1.492   2.691  0.0122 -0.3985  0.2425
11061SOL    HW134624   3.163   1.501   2.596 -1.5961 -1.7811  0.2147
11061SOL    HW234625   3.196   1.401   2.705 -0.9048 -0.5207  1.2011
11062SOL     OW34626   2.887   2.438   4.700  0.2473 -0.0956  0.1979
11062SOL    HW134627   2.793   2.455   4.704  0.4006  0.9262 -0.2617
11062SOL    HW234628   2.927   2.525   4.695  1.1123 -0.5495 -1.6917
11063SOL     OW34629   4.328   0.237   5.983 -0.1981  0.3336 -0.0209
11063SOL    HW134630   4.288   0.180   5.917  0.5141  0.0930 -0.2651
11063SOL    HW234631   4.263   0.243   6.053 -0.3273 -0.7334 -0.0241
11064SOL     OW34632   4.019   0.633   8.153  0.6564 -0.1834  0.2925
11064SOL    HW134633   3.939   0.593   8.186  0.9790 -0.4819  0.7234
11064SOL    HW234634   4.037   0.706   8.212 -0.0688  0.7754 -0.6445
11065SOL     OW34635   0.406   4.182   8.269 -0.7807  0.2855 -0.2705
11065SOL    HW134636   0.480   4.242   8.265 -0.1396 -0.3421  1.5128
11065SOL    HW234637   0.336   4.227   8.221  0.5225  1.1864 -1.3751
11066SOL     OW34638   2.156   7.761   1.956 -0.1045 -0.0372  0.1625
11066SOL    HW134639   2.231   7.775   2.014 -1.7447 -0.4475  2.5159
11066SOL    HW234640   2.087   7.817   1.992 -1.1950 -0.2327 -1.4921
11067SOL     OW34641   6.619   5.945   1.974  0.2000  0.0932 -0.1562
11067SOL    HW134642   6.606   5.884   2.047 -2.0105  0.5760 -0.0804
11067SOL    HW234643   6.620   6.031   2.015  2.2564  0.2322 -0.3862
11068SOL     OW34644   6.665   2.053   4.015  0.5670  0.1735 -0.1236
11068SOL    HW134645   6.596   2.065   4.080  0.1884 -1.6184 -0.1320
11068SOL    HW234646   6.650   2.123   3.951 -0.3626  0.6690  0.6040
11069SOL     OW34647   4.234   6.070   6.654 -0.0171 -0.3172  0.3176
11069SOL    HW134648   4.273   6.014   6.587  1.2391  1.7002 -0.7315
11069SOL    HW234649   4.188   6.138   6.605  0.1553  0.6900  1.4958
11070SOL     OW34650   2.524   0.561   7.998 -0.1656 -0.4693  0.7758
11070SOL    HW134651   2.571   0.481   7.972 -1.1685 -0.3751 -1.5621
11070SOL    HW234652   2.485   0.539   8.083  0.4733 -2.0779  0.6888
11071SOL     OW34653   5.092   2.805   0.665  0.1919 -0.4481  0.4593
11071SOL    HW134654   5.021   2.748   0.637 -1.0458  1.3920 -0.3431
11071SOL    HW234655   5.145   2.817   0.585  0.5575 -0.6376  0.6729
11072SOL     OW34656   2.890   2.597  10.303 -0.3549  0.4496 -0.1311
11072SOL    HW134657   2.820   2.659  10.323 -0.0871  0.3879  1.0834
11072SOL    HW234658   2.932   2.633  10.226 -1.0211  1.0844 -0.2105
11073SOL     OW34659   6.614   5.592   0.369  0.2168  0.1806 -0.2393
11073SOL    HW134660   6.708   5.576   0.363  0.1114 -1.1084  1.0329
11073SOL    HW234661   6.573   5.512   0.337 -0.4910  0.9238 -1.2874
11074SOL     OW34662   3.091   6.047  11.358 -0.6336  0.5755 -0.6384
11074SOL    HW134663   3.064   6.132  11.325  0.1387  0.8773 -0.5199
11074SOL    HW234664   3.184   6.041  11.335 -1.3812 -1.6900 -3.7517
11075SOL     OW34665   3.293   7.070   8.180 -0.1164  0.1391  0.0302
11075SOL    HW134666   3.241   7.150   8.170  1.1769  1.1059  0.8322
11075SOL    HW234667   3.237   7.011   8.230 -0.4400  1.1930  0.9467
11076SOL     OW34668   0.963   4.625   2.818 -0.1863 -0.4558  0.1513
11076SOL    HW134669   0.997   4.650   2.904  1.9474 -1.5843 -0.2977
11076SOL    HW234670   0.925   4.706   2.783  1.4566  0.7514  1.0129
11077SOL     OW34671   0.702   6.150   0.648  0.1864 -0.2246 -0.0190
11077SOL    HW134672   0.793   6.156   0.620  0.0342 -1.0279 -0.7448
11077SOL    HW234673   0.695   6.062   0.687 -0.3039 -0.2230 -0.0963
11078SOL     OW34674   7.370   1.714   6.782 -0.1581 -0.8078 -0.3099
11078SOL    HW134675   7.410   1.772   6.846  0.6093 -0.8476 -0.7468
11078SOL    HW234676   7.423   1.724   6.703 -0.7972 -1.1270 -0.7930
11079SOL     OW34677   0.751   6.087   2.937 -0.0295  0.2674 -0.1939
11079SOL    HW134678   0.798   6.029   2.997  0.9099  0.1352 -1.0228
11079SOL    HW234679   0.813   6.159   2.920 -0.9584  1.2213  0.3659
11080SOL     OW34680   7.316   3.021   7.635  0.1219  0.2143 -0.2774
11080SOL    HW134681   7.347   3.061   7.717  0.1576 -0.2301 -0.0700
11080SOL    HW234682   7.251   3.082   7.601  0.3325  0.5529 -0.0748
11081SOL     OW34683   6.483   6.426   5.189 -0.2891  0.5441 -0.2507
11081SOL    HW134684   6.548   6.424   5.259 -0.4800  1.6134 -0.0238
11081SOL    HW234685   6.533   6.414   5.108  0.6226  3.8927 -0.3336
11082SOL     OW34686   4.183   6.156   4.120  0.5348 -0.0592  0.2634
11082SOL    HW134687   4.243   6.148   4.194  1.2110 -1.3133 -0.3831
11082SOL    HW234688   4.112   6.096   4.141 -0.1601  0.8968  0.6967
11083SOL     OW34689   0.696   2.809   2.999 -0.1246 -0.1964  0.1187
11083SOL    HW134690   0.765   2.803   3.065 -0.4984  0.3337  0.5653
11083SOL    HW234691   0.686   2.902   2.983  0.9070 -0.3554 -1.7116
11084SOL     OW34692   2.047   2.815   0.697  0.4210 -0.0978 -0.4137
11084SOL    HW134693   1.974   2.764   0.660 -0.1588 -0.6937  1.4309
11084SOL    HW234694   2.010   2.902   0.711  0.8455  0.3314 -1.7926
11085SOL     OW34695   0.609   7.420   0.434 -0.0747 -0.3022 -0.0618
11085SOL    HW134696   0.562   7.503   0.425 -0.5774 -0.4612  0.9051
11085SOL    HW234697   0.634   7.416   0.526  2.7344  0.2061 -0.7170
11086SOL     OW34698   2.848   0.691   5.942 -0.2954  0.4579 -0.4396
11086SOL    HW134699   2.805   0.759   5.993 -0.8101  0.4839 -0.8927
11086SOL    HW234700   2.806   0.610   5.971  0.6364  0.2767  0.4285
11087SOL     OW34701   5.948   1.809   3.820  0.2919  0.4185  0.1682
11087SOL    HW134702   5.978   1.870   3.887  1.3823 -0.2646  0.3163
11087SOL    HW234703   5.854   1.828   3.811 -0.2988 -0.6735  3.1367
11088SOL     OW34704   0.576   1.668  12.018  0.2483 -0.6979 -0.2476
11088SOL    HW134705   0.496   1.718  12.036  0.9498 -0.2595  1.9595
11088SOL    HW234706   0.556   1.579  12.046  0.4043 -0.6860 -0.0997
11089SOL     OW34707   0.310   4.030   4.675 -0.3327  0.4827  0.3132
11089SOL    HW134708   0.290   3.937   4.665  0.2953  0.3453  0.3090
11089SOL    HW234709   0.256   4.059   4.749 -1.7303  0.4922 -0.6657
11090SOL     OW34710   7.659   6.059  12.110  0.2934 -0.0774 -0.1328
11090SOL    HW134711   7.675   5.994  12.043  1.6853  1.4844 -1.4048
11090SOL    HW234712   7.721   6.130  12.091 -0.6032  1.2809  1.6339
11091SOL     OW34713   6.433   1.579   2.391  0.0471  0.1217  0.0552
11091SOL    HW134714   6.431   1.659   2.443  0.6617  0.2011 -0.0399
11091SOL    HW234715   6.381   1.516   2.441 -0.6419  0.6490  0.0113
11092SOL     OW34716   6.483   7.250   2.084 -0.1965 -0.5758  0.7268
11092SOL    HW134717   6.575   7.275   2.078  0.1806 -2.2332 -1.9047
11092SOL    HW234718   6.436   7.333   2.093  1.3120  0.7679 -2.3377
11093SOL     OW34719   1.620   2.155   1.929  0.5905  0.3637 -0.1408
11093SOL    HW134720   1.633   2.250   1.928  0.5736  0.3644 -0.2749
11093SOL    HW234721   1.597   2.136   2.020  2.0357  0.2832  0.2360
11094SOL     OW34722   7.167   6.728   1.727  0.4372  0.1885 -0.2877
11094SOL    HW134723   7.235   6.776   1.679  0.8786  0.3287  0.4610
11094SOL    HW234724   7.133   6.664   1.664  1.5144 -0.1300 -0.5569
11095SOL     OW34725   7.626   6.157   1.830  0.1231 -0.8259  0.0743
11095SOL    HW134726   7.648   6.073   1.791  2.0272  0.5670 -2.0434
11095SOL    HW234727   7.690   6.169   1.900 -0.0360 -1.0214  0.2570
11096SOL     OW34728   2.467   2.737   6.223 -0.5679  0.5997 -0.2101
11096SOL    HW134729   2.470   2.658   6.169  0.5782  0.6486 -0.2294
11096SOL    HW234730   2.392   2.723   6.280 -0.5067 -0.4111 -0.3523
11097SOL     OW34731   7.196   0.863   9.982 -0.2493 -0.1702  0.1864
11097SOL    HW134732   7.198   0.767   9.987  2.6818 -0.1513  2.1330
11097SOL    HW234733   7.215   0.883   9.891 -0.7699 -1.4110 -0.2254
11098SOL     OW34734   6.729   7.312   0.880 -0.2500  0.0974 -0.3159
11098SOL    HW134735   6.655   7.369   0.861  0.4299  1.2146  0.3268
11098SOL    HW234736   6.801   7.371   0.902  1.2884 -0.8866 -2.3738
11099SOL     OW34737   0.868   1.937  11.102  0.2508 -0.1954 -0.2260
11099SOL    HW134738   0.858   1.884  11.023 -0.1631  0.4762 -0.6343
11099SOL    HW234739   0.780   1.944  11.138  0.2966  0.2654 -0.2037
11100SOL     OW34740   0.290   3.528   0.447 -0.1019  0.4329  0.4247
11100SOL    HW134741   0.283   3.616   0.484 -1.2356  0.1031  1.0418
11100SOL    HW234742   0.334   3.541   0.363  0.6946  1.4501  0.9807
11101SOL     OW34743   7.314   6.401  11.500  0.3057  0.2085  0.2866
11101SOL    HW134744   7.286   6.475  11.446 -1.8904 -0.4250  0.4392
11101SOL    HW234745   7.364   6.346  11.440  1.1545  1.3363 -0.0754
11102SOL     OW34746   0.212   0.757   4.448 -0.1967 -0.0710  0.1417
11102SOL    HW134747   0.244   0.669   4.430 -3.1144 -1.2422  0.0610
11102SOL    HW234748   0.157   0.746   4.526 -0.0631  1.8362  0.5394
11103SOL     OW34749   1.996   7.339   4.209 -0.0904  0.3077 -0.0201
11103SOL    HW134750   2.022   7.371   4.295 -1.2369  0.7101  0.1876
11103SOL    HW234751   1.903   7.317   4.218 -0.3977  0.9788 -1.3199
11104SOL     OW34752   3.154   0.092   3.471 -0.1351 -0.6497 -0.4807
11104SOL    HW134753   3.100   0.032   3.420 -0.6153  0.8893 -1.8377
11104SOL    HW234754   3.237   0.096   3.423 -0.0486 -0.3437 -0.3084
11105SOL     OW34755   2.734   3.440   6.488 -0.2466 -0.9884  0.0907
11105SOL    HW134756   2.778   3.372   6.437  0.1476 -1.1828  0.6722
11105SOL    HW234757   2.650   3.401   6.513  0.2841 -1.5492  1.0376
11106SOL     OW34758   2.516   5.955   5.338  0.1630  0.1167 -0.0092
11106SOL    HW134759   2.548   6.003   5.262  0.3151 -0.5328 -0.3628
11106SOL    HW234760   2.440   5.907   5.306  1.0744 -1.2884 -0.1405
11107SOL     OW34761   6.799   3.439   4.916 -0.2135 -0.5012 -0.0111
11107SOL    HW134762   6.849   3.452   4.835 -0.2538  1.7281  0.2590
11107SOL    HW234763   6.866   3.428   4.984 -0.1357 -0.4970 -0.0865
11108SOL     OW34764   4.965   6.577  10.869  0.7367 -0.3333 -0.2870
11108SOL    HW134765   5.023   6.504  10.887  0.4797 -0.4219  0.2168
11108SOL    HW234766   4.984   6.603  10.779 -0.1363 -1.8962 -0.9511
11109SOL     OW34767   3.552   7.384   3.825 -0.0075  0.1327  0.0097
11109SOL    HW134768   3.611   7.400   3.899 -2.2927  1.4749  1.6732
11109SOL    HW234769   3.524   7.293   3.837  0.9187 -0.1879 -0.2028
11110SOL     OW34770   5.825   1.703  11.715  0.4168 -0.4778 -0.5794
11110SOL    HW134771   5.905   1.660  11.746 -0.1011  0.2524  1.9538
11110SOL    HW234772   5.855   1.759  11.643  2.1805 -0.3207  0.2071
11111SOL     OW34773   2.028   5.980   7.180 -0.2262 -0.0111 -0.6313
11111SOL    HW134774   1.973   6.042   7.132 -1.6014  1.3524  2.4214
11111SOL    HW234775   1.966   5.922   7.224  0.9371 -0.9342 -0.1430
11112SOL     OW34776   5.470   2.092   8.644 -0.7386 -0.3994 -0.6317
11112SOL    HW134777   5.539   2.057   8.588  0.0755  0.8567 -0.4465
11112SOL    HW234778   5.516   2.141   8.712 -1.8062  0.5826 -0.5735
11113SOL     OW34779   0.020   1.138  12.286  0.5238  0.2049  0.1319
11113SOL    HW134780   0.008   1.231  12.303 -0.9775  0.1818 -0.6303
11113SOL    HW234781  -0.042   1.095  12.345 -1.8823 -0.0508 -2.3537
11114SOL     OW34782   5.804   6.094   3.267  0.2200  0.0821  0.3154
11114SOL    HW134783   5.733   6.096   3.331  0.7095 -0.0748  0.8778
11114SOL    HW234784   5.883   6.081   3.320  0.7470  0.9394 -0.2420
11115SOL     OW34785   4.790   2.416   3.725  0.5367 -0.3685 -0.0997
11115SOL    HW134786   4.756   2.336   3.686 -0.4587 -0.7562  1.4885
11115SOL    HW234787   4.711   2.467   3.747  0.8031 -1.3456  3.7966
11116SOL     OW34788   5.365   3.289   1.454 -0.6089 -0.5570  0.2690
11116SOL    HW134789   5.389   3.200   1.481  0.6007 -0.4963 -0.5268
11116SOL    HW234790   5.446   3.338   1.460 -1.0335  0.2319 -0.3702
11117SOL     OW34791   7.351   6.788   6.425 -0.3627 -0.6569  0.8658
11117SOL    HW134792   7.311   6.870   6.455  0.3495 -0.0495  0.2028
11117SOL    HW234793   7.435   6.815   6.388 -0.6052 -1.5485 -0.3719
11118SOL     OW34794   5.708   0.650   9.918  0.1117 -0.2765  0.0732
11118SOL    HW134795   5.704   0.652  10.014 -0.2482  1.0822  0.0447
11118SOL    HW234796   5.748   0.733   9.893 -1.0424 -0.0141 -1.0070
11119SOL     OW34797   7.261   4.985   0.495  0.6253  0.3020 -0.2313
11119SOL    HW134798   7.207   5.059   0.468  0.3487  1.3695  2.8083
11119SOL    HW234799   7.348   5.023   0.510  0.4241  0.1203  1.5796
11120SOL     OW34800   0.359   2.140   9.306 -0.3291 -0.6611 -0.3198
11120SOL    HW134801   0.452   2.154   9.320 -0.0678 -2.2196 -0.3590
11120SOL    HW234802   0.324   2.122   9.393 -0.4405 -0.8656 -0.4045
11121SOL     OW34803   2.894   4.123   1.027  0.3407  0.6983 -0.1381
11121SOL    HW134804   2.892   4.038   0.984  1.7977 -0.4708  1.9201
11121SOL    HW234805   2.824   4.173   0.985  0.0636 -1.1678 -2.0579
11122SOL     OW34806   6.333   4.053   8.267  0.5524  0.4081 -0.2055
11122SOL    HW134807   6.263   3.990   8.247  0.1766  1.2810 -1.8054
11122SOL    HW234808   6.287   4.128   8.305  0.6572  0.8103 -0.8611
11123SOL     OW34809   2.707   4.999   1.911 -0.1235 -0.3264  0.2685
11123SOL    HW134810   2.617   4.967   1.899 -0.2138  0.2729 -0.8618
11123SOL    HW234811   2.718   5.007   2.005 -2.7126  3.5362  0.4639
11124SOL     OW34812   1.479   0.390  12.079  0.0404 -0.1764  0.2355
11124SOL    HW134813   1.441   0.309  12.044 -1.1829  0.3718  0.2525
11124SOL    HW234814   1.492   0.446  12.003  0.5002 -0.2177  0.2768
11125SOL     OW34815   2.359   6.759   4.416 -0.1457 -0.3556 -0.2055
11125SOL    HW134816   2.306   6.740   4.494  0.0386  0.4198  0.1175
11125SOL    HW234817   2.399   6.675   4.393 -1.3109 -0.9031 -0.3021
11126SOL     OW34818   2.124   3.815   0.980  0.1282 -1.0832 -0.0651
11126SOL    HW134819   2.046   3.777   1.020 -0.1684  2.2359  3.0880
11126SOL    HW234820   2.092   3.894   0.936  1.4436 -0.8044 -0.5648
11127SOL     OW34821   1.298   3.998   5.087  0.8249  0.2093  0.0709
11127SOL    HW134822   1.385   3.959   5.091  1.7326  2.1527  0.5377
11127SOL    HW234823   1.244   3.941   5.142  1.6051 -1.4053 -0.7595
11128SOL     OW34824   3.429   0.058   1.260 -0.5603 -0.2673 -0.0911
11128SOL    HW134825   3.388   0.051   1.174 -0.9895  0.7766  0.0034
11128SOL    HW234826   3.402  -0.021   1.306  1.0201 -1.6525 -1.4462
11129SOL     OW34827   4.310   3.113   0.629  0.4247 -0.5819  0.1880
11129SOL    HW134828   4.265   3.046   0.681  0.9052 -0.6751  0.4949
11129SOL    HW234829   4.392   3.071   0.603 -0.1673 -0.8419 -1.3824
11130SOL     OW34830   0.214   2.338   5.073 -0.0644 -0.5186  0.6527
11130SOL    HW134831   0.257   2.280   5.137  1.7084  0.1107  0.0909
11130SOL    HW234832   0.182   2.279   5.005  1.3258 -0.9181  0.3054
11131SOL     OW34833   4.017   3.337   0.866 -0.0795  0.0435  0.2884
11131SOL    HW134834   3.983   3.372   0.784 -0.6609 -1.3603 -0.1027
11131SOL    HW234835   4.112   3.346   0.860 -0.1517  0.3959 -0.3320
11132SOL     OW34836   7.035   0.437   0.945 -0.1211  0.0887  0.1108
11132SOL    HW134837   7.085   0.518   0.934 -2.7903  1.9474  0.6351
11132SOL    HW234838   6.960   0.463   1.000 -1.0408 -2.7708  0.3396
11133SOL     OW34839   0.069   2.923   6.705 -0.6005 -0.1469  0.3440
11133SOL    HW134840   0.121   2.968   6.638 -0.7811 -1.2442 -0.5855
11133SOL    HW234841   0.124   2.924   6.783 -0.5249  1.4712  0.2967
11134SOL     OW34842   6.716   3.953   8.657  0.3733  0.3026 -0.7231
11134SOL    HW134843   6.664   3.986   8.730  0.3430 -0.8472 -0.2077
11134SOL    HW234844   6.656   3.953   8.583  0.1117  0.5086 -0.5136
11135SOL     OW34845   2.535   3.539   9.538  0.0324 -0.3074  0.5269
11135SOL    HW134846   2.470   3.599   9.575  0.2179  1.7549 -2.1950
11135SOL    HW234847   2.485   3.484   9.477  0.1879 -1.7745  1.6545
11136SOL     OW34848   1.539   4.447   2.367 -0.4234 -0.6291 -0.6307
11136SOL    HW134849   1.613   4.441   2.306 -1.4352  0.3660 -2.0130
11136SOL    HW234850   1.463   4.461   2.311 -1.1943  2.0909  0.8963
11137SOL     OW34851   0.158   5.565   7.366  0.3144 -0.1623 -0.1384
11137SOL    HW134852   0.065   5.560   7.342  0.1073 -0.1023  0.6254
11137SOL    HW234853   0.163   5.521   7.451  1.4192 -2.4857 -1.3041
11138SOL     OW34854   6.279   0.405   4.904 -0.4359 -0.3625  1.0013
11138SOL    HW134855   6.262   0.355   4.824  0.8381 -2.3857  1.9361
11138SOL    HW234856   6.216   0.373   4.967 -0.2808 -0.0498  1.3192
11139SOL     OW34857   1.675   1.760   9.800  0.2162  0.7070  0.2538
11139SOL    HW134858   1.686   1.680   9.851  0.9382 -0.7784 -2.0981
11139SOL    HW234859   1.588   1.792   9.824 -0.1979 -0.9156  1.0457
11140SOL     OW34860   3.285   7.566   9.487 -0.3643  0.2387 -0.2266
11140SOL    HW134861   3.255   7.565   9.578 -1.3210  1.0014 -0.5147
11140SOL    HW234862   3.351   7.497   9.483  0.3835  0.7992  1.2756
11141SOL     OW34863   2.794   5.446   4.409  0.2677 -0.2792 -0.0493
11141SOL    HW134864   2.839   5.521   4.370  0.3871 -0.1380  0.3523
11141SOL    HW234865   2.740   5.484   4.478 -0.9274 -0.3782 -0.9112
11142SOL     OW34866   3.757   7.050   2.555 -0.4406  0.3311 -0.1886
11142SOL    HW134867   3.669   7.089   2.558 -1.0223 -0.9818  0.6619
11142SOL    HW234868   3.745   6.961   2.589  0.7963 -0.7217 -2.3194
11143SOL     OW34869   4.540   3.010   2.591 -0.1241  0.4800  0.1625
11143SOL    HW134870   4.455   3.038   2.556 -0.2862  0.2330  0.3536
11143SOL    HW234871   4.537   3.033   2.683  0.3942  1.3362 -0.0264
11144SOL     OW34872   4.586   5.297   2.149  0.3656  0.6216  0.5780
11144SOL    HW134873   4.536   5.371   2.115  0.2583  0.2440 -0.0983
11144SOL    HW234874   4.669   5.300   2.100  0.1026 -0.0864  0.0659
11145SOL     OW34875   6.386   5.330   7.189 -0.0331  0.4741  0.1672
11145SOL    HW134876   6.379   5.278   7.269 -0.6833 -0.6857 -0.6203
11145SOL    HW234877   6.340   5.279   7.123  0.6371  1.3359 -0.9962
11146SOL     OW34878   2.185   5.896   3.418 -0.2091  0.3389  0.6326
11146SOL    HW134879   2.175   5.806   3.448  1.1295 -0.5499 -1.3968
11146SOL    HW234880   2.280   5.910   3.416 -0.3956  1.7756  0.8183
11147SOL     OW34881   0.374   0.994   4.465 -0.2295  0.4059  0.3088
11147SOL    HW134882   0.410   1.047   4.394 -0.0590  2.5164  1.8494
11147SOL    HW234883   0.357   0.909   4.426  3.2717  0.3005 -1.3484
11148SOL     OW34884   5.503   0.437   0.452 -0.1540 -0.2628  0.3591
11148SOL    HW134885   5.462   0.516   0.417 -2.0070 -1.3001  0.0517
11148SOL    HW234886   5.543   0.395   0.376 -1.4038 -0.8800  0.0034
11149SOL     OW34887   5.347   2.049  12.025  0.3418 -0.5088  0.1783
11149SOL    HW134888   5.361   2.011  12.112  0.0282 -0.1148  0.4066
11149SOL    HW234889   5.328   1.975  11.969  1.1042 -0.8309  0.3274
11150SOL     OW34890   4.604   2.544   8.177  0.4670 -0.2328  0.0227
11150SOL    HW134891   4.608   2.618   8.115  0.3658 -0.0985  0.1747
11150SOL    HW234892   4.552   2.478   8.132 -2.0523  0.9240  1.0528
11151SOL     OW34893   2.956   3.303  10.461  0.0989 -0.4195 -0.5115
11151SOL    HW134894   2.991   3.350  10.386 -0.4892  0.7969 -0.0582
11151SOL    HW234895   2.976   3.360  10.536  0.4159 -1.4635  0.2200
11152SOL     OW34896   6.904   5.584   1.312  0.7922  0.0377 -0.4374
11152SOL    HW134897   6.834   5.631   1.268 -0.7808 -0.8511  1.0169
11152SOL    HW234898   6.884   5.491   1.298  0.1430 -0.2909  2.1510
11153SOL     OW34899   2.319   4.155   7.727 -0.9019  0.2471  0.0320
11153SOL    HW134900   2.329   4.219   7.656  0.2304  0.2236  0.1561
11153SOL    HW234901   2.228   4.128   7.721 -1.2414  1.4074 -0.4225
11154SOL     OW34902   5.132   4.314   8.804 -0.3435 -0.0484 -0.2216
11154SOL    HW134903   5.144   4.247   8.871  0.7850  0.1281 -0.2250
11154SOL    HW234904   5.128   4.396   8.853 -0.5258 -0.0115 -0.2984
11155SOL     OW34905   3.394   2.602   1.186 -0.8509  0.1780  0.6643
11155SOL    HW134906   3.374   2.696   1.186 -0.6287  0.2725 -1.4531
11155SOL    HW234907   3.316   2.561   1.149  0.1826 -0.1216 -1.3187
11156SOL     OW34908   0.882   1.028   6.668 -0.2215 -0.2749  0.8651
11156SOL    HW134909   0.854   0.985   6.749 -1.6850 -0.1329  0.4733
11156SOL    HW234910   0.800   1.049   6.623  0.5429 -2.5296 -1.8272
11157SOL     OW34911   2.415   6.277   4.296 -0.1611 -0.2121  0.6747
11157SOL    HW134912   2.373   6.285   4.210  0.5872  1.6179  0.4335
11157SOL    HW234913   2.480   6.208   4.285  0.9660  1.0126 -0.6971
11158SOL     OW34914   3.162   2.747   9.440 -0.4760  0.3669 -0.1213
11158SOL    HW134915   3.213   2.737   9.360 -0.5668 -1.8303  0.0374
11158SOL    HW234916   3.088   2.802   9.414  0.1232  0.6720 -1.2413
11159SOL     OW34917   2.768   1.365   3.946 -0.4261 -0.0049 -0.6439
11159SOL    HW134918   2.782   1.345   3.853 -0.0288 -1.6532 -0.2621
11159SOL    HW234919   2.788   1.283   3.991  0.7454  1.1497  1.0390
11160SOL     OW34920   7.655   0.174   2.278 -0.1044 -0.0773  0.6792
11160SOL    HW134921   7.595   0.161   2.351  0.3727 -0.4497  1.0097
11160SOL    HW234922   7.616   0.126   2.205 -0.5043  0.1702  0.7266
11161SOL     OW34923   0.716   7.008   5.945  0.1383  0.0114  0.1888
11161SOL    HW134924   0.652   6.978   5.880  2.7667 -0.8116 -2.1938
11161SOL    HW234925   0.747   7.092   5.912  0.6060  0.2040  1.0757
11162SOL     OW34926   5.748   2.493   2.481 -0.3056  0.4239  0.1366
11162SOL    HW134927   5.789   2.568   2.438  0.7992 -0.2300  0.0199
11162SOL    HW234928   5.742   2.518   2.573 -1.4104  1.2743 -0.1387
11163SOL     OW34929   3.046   7.331   6.234 -0.5093 -0.0406 -0.4044
11163SOL    HW134930   2.993   7.270   6.285  0.6414 -0.3163  0.5193
11163SOL    HW234931   3.101   7.275   6.179  1.6742  0.0046  1.5708
11164SOL     OW34932   7.414   5.715   6.130 -0.2624 -0.2777  0.3806
11164SOL    HW134933   7.496   5.764   6.135 -0.5204  0.5687 -2.3689
11164SOL    HW234934   7.355   5.770   6.079 -1.7027 -1.9852  0.0731
11165SOL     OW34935   1.840   3.693   8.493 -0.3154  0.2800  0.1199
11165SOL    HW134936   1.878   3.638   8.425  1.9675 -0.1828  1.6684
11165SOL    HW234937   1.908   3.757   8.513 -0.3746 -0.4133  2.8548
11166SOL     OW34938   4.669   1.413   9.266  0.5524  0.3004  0.5407
11166SOL    HW134939   4.692   1.349   9.199  0.9095 -1.0668  1.9149
11166SOL    HW234940   4.698   1.497   9.230  0.9818 -0.4315 -0.8820
11167SOL     OW34941   6.103   7.067  10.830 -0.1519  0.2179 -0.0353
11167SOL    HW134942   6.080   7.033  10.917  0.9548 -0.5059 -0.0123
11167SOL    HW234943   6.192   7.037  10.815 -0.4620 -0.0104 -1.5962
11168SOL     OW34944   2.977   4.502   3.765  0.2530 -0.8291  0.0070
11168SOL    HW134945   2.898   4.522   3.815  1.0193  0.6758  0.6984
11168SOL    HW234946   3.046   4.493   3.830  0.5959 -2.6104 -0.5539
11169SOL     OW34947   2.533   5.766   2.891  0.2085 -0.4838 -0.2649
11169SOL    HW134948   2.512   5.823   2.966 -0.8640 -1.3519  0.1281
11169SOL    HW234949   2.478   5.798   2.820  1.5601  0.6290 -0.8474
11170SOL     OW34950   4.354   5.511   2.605  0.3887  0.1823 -0.3847
11170SOL    HW134951   4.413   5.552   2.667 -1.4691  3.8650 -0.8133
11170SOL    HW234952   4.412   5.465   2.544  2.3943 -0.9963  2.2214
11171SOL     OW34953   7.522   3.294   5.686 -0.2730 -0.4536 -0.3478
11171SOL    HW134954   7.610   3.294   5.723  0.3090 -0.0656 -1.6506
11171SOL    HW234955   7.501   3.387   5.674 -0.6504 -0.5560 -0.4960
11172SOL     OW34956   0.205   6.013   9.525  0.0701  0.0188  0.4762
11172SOL    HW134957   0.247   6.092   9.491  2.3639 -0.6799  1.5000
11172SOL    HW234958   0.124   6.044   9.565  0.0561  1.5915 -0.6763
11173SOL     OW34959   5.358   6.039   3.858 -0.1205 -0.1928 -0.5456
11173SOL    HW134960   5.434   6.011   3.807  0.8614  1.8386 -0.2764
11173SOL    HW234961   5.290   6.055   3.793  0.5153  0.5227 -1.0409
11174SOL     OW34962   0.010   2.292   4.110  0.4604 -0.1208  0.2180
11174SOL    HW134963   0.011   2.199   4.131  0.7032 -0.5950 -1.7392
11174SOL    HW234964  -0.024   2.334   4.189  0.2958 -1.8612  1.1129
11175SOL     OW34965   0.765   2.708   2.181  0.8265  0.0655 -0.0786
11175SOL    HW134966   0.760   2.633   2.122 -0.3170  0.2888 -0.2913
11175SOL    HW234967   0.834   2.684   2.244  2.9893  0.3421 -2.1761
11176SOL     OW34968   5.065   1.587  10.940 -0.3972 -0.7979 -0.1341
11176SOL    HW134969   5.145   1.632  10.911 -1.4868  0.2634 -1.6966
11176SOL    HW234970   5.095   1.503  10.973  1.4476 -0.0770  0.1360
11177SOL     OW34971   4.831   3.587  10.935 -0.4824 -0.3850 -0.3357
11177SOL    HW134972   4.919   3.550  10.925 -0.8556 -1.3070 -0.2226
11177SOL    HW234973   4.844   3.681  10.925  0.5575 -0.4928 -0.0821
11178SOL     OW34974   4.762   4.296   8.806 -0.4195  0.0340 -0.1605
11178SOL    HW134975   4.689   4.326   8.860 -0.4710  1.6808 -1.0886
11178SOL    HW234976   4.721   4.236   8.743 -0.8083  0.1630 -0.0378
11179SOL     OW34977   1.662   2.872   9.931 -0.0396 -0.1295  0.0744
11179SOL    HW134978   1.652   2.948   9.874 -0.1738  0.5914  1.0336
11179SOL    HW234979   1.649   2.797   9.874 -0.3490  0.5796 -0.8021
11180SOL     OW34980   2.067   2.542   8.283 -0.0630  0.1314 -0.4408
11180SOL    HW134981   1.973   2.547   8.298 -0.3474  0.2228 -2.1125
11180SOL    HW234982   2.106   2.555   8.370 -1.5965 -1.2464  0.5052
11181SOL     OW34983   5.993   3.654  10.941 -0.5859 -0.4325 -0.6316
11181SOL    HW134984   6.038   3.737  10.958  1.0128 -1.1130 -1.2513
11181SOL    HW234985   6.049   3.610  10.876 -0.8434 -2.4197  0.4272
11182SOL     OW34986   1.397   0.535   8.458 -0.6195 -0.9110 -0.1690
11182SOL    HW134987   1.326   0.501   8.403  0.1050 -0.0430 -1.7117
11182SOL    HW234988   1.474   0.533   8.402 -0.1032  1.2127  0.3607
11183SOL     OW34989   0.102   0.246   3.554  0.1012 -0.6124 -0.1429
11183SOL    HW134990   0.046   0.171   3.569  0.0104 -0.5179 -0.0046
11183SOL    HW234991   0.175   0.234   3.615 -0.5576  0.0701  0.8243
11184SOL     OW34992   3.081   3.189   3.198  0.1889  0.0273 -0.3813
11184SOL    HW134993   3.111   3.273   3.164  0.7329 -0.0428 -0.0891
11184SOL    HW234994   3.004   3.168   3.146 -0.5263  1.1686  0.1858
11185SOL     OW34995   7.429   0.545   8.439  0.5032  0.3575 -0.1500
11185SOL    HW134996   7.517   0.583   8.452  0.7537 -0.0969 -0.4922
11185SOL    HW234997   7.386   0.556   8.524 -0.0253  2.8564 -0.6665
11186SOL     OW34998   1.087   2.399  11.355 -0.1750  0.1291  0.3080
11186SOL    HW134999   1.067   2.445  11.437 -0.2367  0.6424  0.0047
11186SOL    HW235000   1.173   2.359  11.371  0.5036  1.4621  0.1052
11187SOL     OW35001   5.717   3.860   7.714  0.5881 -0.5803  0.0598
11187SOL    HW135002   5.781   3.871   7.785  0.3146 -0.5074  0.2997
11187SOL    HW235003   5.638   3.826   7.758 -0.0480  0.7665  0.0315
11188SOL     OW35004   2.626   1.945  11.507  0.2786  0.1273  0.4688
11188SOL    HW135005   2.679   2.021  11.531 -0.1530 -0.2171  2.7480
11188SOL    HW235006   2.552   1.982  11.458  2.0033  0.7056 -1.9182
11189SOL     OW35007   1.446   6.115   7.295  0.0962  0.1362 -0.2133
11189SOL    HW135008   1.520   6.057   7.313 -0.8822 -1.2187 -0.4129
11189SOL    HW235009   1.410   6.082   7.212 -0.4660  1.0593 -0.3455
11190SOL     OW35010   0.197   5.748   9.476 -0.1306  0.1053  0.1655
11190SOL    HW135011   0.193   5.836   9.515 -0.7169 -0.6225  1.8633
11190SOL    HW235012   0.169   5.761   9.386  1.0457  1.8559 -0.0139
11191SOL     OW35013   6.896   7.266   2.848 -0.1787  0.1971 -0.1264
11191SOL    HW135014   6.946   7.185   2.852 -0.4060 -0.0507 -1.7708
11191SOL    HW235015   6.948   7.329   2.898 -0.6878 -1.2655  2.4223
11192SOL     OW35016   3.599   7.699   3.480  0.3909  0.1921 -0.0683
11192SOL    HW135017   3.530   7.743   3.431  2.5276 -0.1529 -3.6944
11192SOL    HW235018   3.576   7.606   3.475  0.2918  0.2020  0.1714
11193SOL     OW35019   2.678   3.667  11.874 -0.4948  0.1543 -0.8097
11193SOL    HW135020   2.589   3.702  11.862 -0.4349  0.3799 -0.5887
11193SOL    HW235021   2.727   3.701  11.799 -0.0702  1.7295  0.1432
11194SOL     OW35022   7.047   1.801   8.432  0.1072 -0.4197 -0.1602
11194SOL    HW135023   6.962   1.820   8.393  0.6159 -0.1521 -1.1669
11194SOL    HW235024   7.067   1.879   8.484 -0.2479 -0.4738  0.0605
11195SOL     OW35025   7.233   4.077   4.793  0.2328 -0.3488 -0.3034
11195SOL    HW135026   7.301   4.105   4.854 -0.8382  2.1505 -0.1564
11195SOL    HW235027   7.159   4.052   4.849  0.7244 -2.4349 -0.4893
11196SOL     OW35028   1.839   2.892   8.147  0.5525  0.0815 -0.4129
11196SOL    HW135029   1.865   2.956   8.213  1.4597  0.9678 -1.5620
11196SOL    HW235030   1.864   2.933   8.064 -1.0531 -0.7326 -1.3575
11197SOL     OW35031   1.075   7.707   6.079  0.5477 -0.2154  0.2473
11197SOL    HW135032   1.070   7.634   6.018  1.4030 -1.1802  1.2826
11197SOL    HW235033   1.160   7.697   6.122  0.1140  0.6221  1.3584
11198SOL     OW35034   2.782   6.870   7.768  0.1475 -0.3547  0.5885
11198SOL    HW135035   2.871   6.904   7.756 -0.7166  2.7777  1.9059
11198SOL    HW235036   2.734   6.905   7.693 -0.2891 -0.6898  0.7131
11199SOL     OW35037   0.635   1.563   8.118 -0.6695  0.0796  0.0273
11199SOL    HW135038   0.671   1.639   8.164  1.0587 -0.3207 -0.5891
11199SOL    HW235039   0.615   1.500   8.187 -0.6549  0.5174  0.4331
11200SOL     OW35040   4.331   0.351   7.413  0.0809 -0.1808 -0.1850
11200SOL    HW135041   4.350   0.273   7.362  0.0645  0.2495 -0.8509
11200SOL    HW235042   4.284   0.409   7.353 -0.5725  0.0423  0.5180
11201SOL     OW35043   2.174   5.998  10.247 -0.5484 -0.1878  0.3151
11201SOL    HW135044   2.174   6.003  10.151  1.6664  0.5656  0.2895
11201SOL    HW235045   2.094   6.041  10.274 -0.3310  1.2260 -1.1773
11202SOL     OW35046   2.007   7.818   0.194 -0.2964 -0.2874  0.2959
11202SOL    HW135047   1.960   7.847   0.116  3.4539  0.3908 -1.9587
11202SOL    HW235048   2.049   7.897   0.228  0.2679 -1.0408  1.4269
11203SOL     OW35049   6.006   1.402   5.026 -0.0915 -0.4944 -0.3269
11203SOL    HW135050   6.009   1.387   5.121 -0.6939  0.1101 -0.2054
11203SOL    HW235051   5.913   1.396   5.004  0.2362 -3.5040 -1.3764
11204SOL     OW35052   3.069   5.179   4.964  0.1952  0.5660  0.0808
11204SOL    HW135053   3.083   5.262   4.919  0.3175  0.3138 -0.3536
11204SOL    HW235054   3.068   5.202   5.057  0.3873  1.0297 -0.0291
11205SOL     OW35055   0.764   2.337   9.065 -0.6265  0.4668  0.0009
11205SOL    HW135056   0.817   2.365   8.990  0.0047 -0.4716  0.0868
11205SOL    HW235057   0.790   2.247   9.081 -0.1011  0.9067  1.8974
11206SOL     OW35058   3.801   3.950   4.993 -0.1019  0.0836 -0.2453
11206SOL    HW135059   3.890   3.983   4.980 -0.8906  2.2305 -0.5097
11206SOL    HW235060   3.752   4.024   5.028 -2.2898 -0.3807 -2.0640
11207SOL     OW35061   3.491   7.464   8.175  0.0601 -0.0619 -0.1467
11207SOL    HW135062   3.518   7.392   8.117  0.3796 -0.3099  0.3018
11207SOL    HW235063   3.400   7.481   8.151 -0.3314 -1.2807  0.4041
11208SOL     OW35064   7.530   0.685   5.127  0.2890  0.3091 -0.3777
11208SOL    HW135065   7.607   0.701   5.182  0.4786 -0.5097 -0.3896
11208SOL    HW235066   7.462   0.657   5.189  0.3803 -0.2122 -0.5156
11209SOL     OW35067   4.494   3.216   2.239  0.1485  0.0411 -0.1007
11209SOL    HW135068   4.499   3.238   2.332 -0.1326 -1.6122  0.3410
11209SOL    HW235069   4.430   3.277   2.203  1.5265  1.8751  0.3757
11210SOL     OW35070   7.486   0.822   5.375 -0.6233 -0.1052 -0.3764
11210SOL    HW135071   7.392   0.839   5.368 -0.2991  1.5759 -1.1290
11210SOL    HW235072   7.524   0.908   5.393  0.9326 -0.4103 -1.9307
11211SOL     OW35073   4.476   5.233   5.848  0.4346  0.4170 -0.2095
11211SOL    HW135074   4.415   5.219   5.775  0.4986  0.4576 -0.2709
11211SOL    HW235075   4.544   5.166   5.835  0.0785 -0.0321  0.2099
11212SOL     OW35076   1.427   5.349   3.657 -0.3529  0.0538  0.5558
11212SOL    HW135077   1.365   5.388   3.718 -2.8279  1.3743 -2.5075
11212SOL    HW235078   1.513   5.367   3.695 -1.6057  3.6837  2.0955
11213SOL     OW35079   4.350   0.457   1.583  0.2713 -0.7359 -0.0658
11213SOL    HW135080   4.376   0.413   1.664  3.0150  2.9569  1.3463
11213SOL    HW235081   4.399   0.411   1.514  0.2971 -2.0349  0.7934
11214SOL     OW35082   0.730   4.053   6.871 -0.1339  0.1898 -0.1712
11214SOL    HW135083   0.677   4.130   6.892 -0.8996 -0.2076 -0.6110
11214SOL    HW235084   0.786   4.082   6.798  1.8469  1.2767  1.6737
11215SOL     OW35085   1.463   7.647   2.096 -0.4604 -0.1143  1.0458
11215SOL    HW135086   1.429   7.725   2.139  0.7225 -0.1932  2.1775
11215SOL    HW235087   1.451   7.663   2.003 -1.8409  0.6529  1.3300
11216SOL     OW35088   2.812   6.171   8.432 -0.2474  0.2564 -0.4026
11216SOL    HW135089   2.786   6.132   8.348 -0.6282 -0.2174 -0.0736
11216SOL    HW235090   2.731   6.207   8.468  0.0916  1.3346 -0.6771
11217SOL     OW35091   2.982   2.661   9.793  0.1208 -0.4188 -0.1706
11217SOL    HW135092   2.933   2.674   9.711 -0.5886  0.3836  0.3629
11217SOL    HW235093   3.023   2.575   9.783  3.0611  1.0951 -2.9010
11218SOL     OW35094   1.950   6.971   5.417  0.2626 -0.0428  0.1901
11218SOL    HW135095   1.966   6.882   5.385  2.2883 -0.2417  1.5904
11218SOL    HW235096   1.974   7.027   5.343  1.1168 -0.5940  0.0390
11219SOL     OW35097   6.079   6.441   1.548  0.2324 -0.4769 -0.1271
11219SOL    HW135098   6.029   6.504   1.496  0.7345 -0.0273 -0.0681
11219SOL    HW235099   6.168   6.477   1.552  0.2340 -0.5476  0.9544
11220SOL     OW35100   2.998   1.754   6.652 -0.5866 -0.0619  0.5064
11220SOL    HW135101   3.021   1.662   6.641 -1.0474 -0.0910 -0.2607
11220SOL    HW235102   2.921   1.753   6.709 -1.9576 -0.3228 -1.2498
11221SOL     OW35103   0.870   6.966   9.821  0.5570 -0.0337 -0.3937
11221SOL    HW135104   0.915   6.934   9.899 -0.8247 -1.5113 -0.1530
11221SOL    HW235105   0.858   7.060   9.837 -0.7558 -0.4965  1.7643
11222SOL     OW35106   0.159   3.728  11.437 -0.4433 -0.2509  0.2411
11222SOL    HW135107   0.135   3.820  11.439  2.4784  0.6193  0.2852
11222SOL    HW235108   0.236   3.722  11.494  0.1857 -2.4692 -0.7240
11223SOL     OW35109   5.530   5.742   7.869  0.2798  0.2023  0.0291
11223SOL    HW135110   5.453   5.794   7.846  1.2106  0.8142 -1.9709
11223SOL    HW235111   5.506   5.653   7.842 -0.1672  0.1596  0.5512
11224SOL     OW35112   6.785   3.716   8.843  0.2933 -0.0029  0.4065
11224SOL    HW135113   6.826   3.661   8.776  0.7829  0.6767  0.1379
11224SOL    HW235114   6.728   3.775   8.795  0.7280  0.5610  0.5743
11225SOL     OW35115   6.539   2.032  12.330 -0.4383  0.4838  0.4794
11225SOL    HW135116   6.485   2.105  12.297  0.0218  1.0847  1.0366
11225SOL    HW235117   6.484   1.955  12.319 -1.6202  1.1448  1.4620
11226SOL     OW35118   3.776   2.498   9.725  0.0068 -0.2422  0.1084
11226SOL    HW135119   3.689   2.515   9.689 -0.4353 -0.0011  1.2506
11226SOL    HW235120   3.789   2.404   9.712  0.0286 -0.0957 -1.0112
11227SOL     OW35121   5.182   3.013   0.220  0.0245 -0.2823 -0.8990
11227SOL    HW135122   5.227   3.065   0.153 -0.8261 -1.0685 -2.1130
11227SOL    HW235123   5.203   2.922   0.198 -1.6373 -0.6417 -1.1466
11228SOL     OW35124   1.246   3.433   6.078  0.4381  0.2493 -0.3867
11228SOL    HW135125   1.266   3.342   6.052  2.1134  0.3979  0.2903
11228SOL    HW235126   1.176   3.424   6.142 -2.1978 -0.2748 -3.0651
11229SOL     OW35127   3.137   6.145   8.755  0.3598  0.0604  0.2427
11229SOL    HW135128   3.081   6.133   8.678 -0.2515  0.4676  0.6180
11229SOL    HW235129   3.225   6.129   8.723  0.1952  0.9615 -0.7169
11230SOL     OW35130   1.674   1.495   7.263 -0.1648  0.3387 -0.3716
11230SOL    HW135131   1.754   1.447   7.243  0.8032  1.5778  0.3981
11230SOL    HW235132   1.608   1.427   7.274  0.7782 -0.7117 -0.9913
11231SOL     OW35133   2.869   2.537   6.819 -0.0337 -0.9351  0.6406
11231SOL    HW135134   2.811   2.549   6.894 -0.0198 -0.4827  0.5805
11231SOL    HW235135   2.840   2.604   6.756 -0.9413 -2.1645 -0.2994
11232SOL     OW35136   4.643   1.220   9.693  0.3869  0.0333 -0.1368
11232SOL    HW135137   4.673   1.299   9.649  0.5823  0.4615  0.7301
11232SOL    HW235138   4.593   1.252   9.768 -1.2107 -0.6798 -0.8529
11233SOL     OW35139   2.917   0.283  11.639  0.6262  0.3119  0.4210
11233SOL    HW135140   2.833   0.324  11.619  0.6931  0.6992  0.9058
11233SOL    HW235141   2.924   0.211  11.577 -0.6134 -0.4970  1.1842
11234SOL     OW35142   6.266   6.213   0.018 -0.3093  0.5744  0.2450
11234SOL    HW135143   6.354   6.242   0.039 -0.6832  0.5666  1.9727
11234SOL    HW235144   6.214   6.293   0.016 -0.2053  0.6364 -1.2755
11235SOL     OW35145   2.856   6.680   6.019 -0.4909  0.3821 -0.6756
11235SOL    HW135146   2.922   6.622   5.982 -1.0727 -0.8668  0.1561
11235SOL    HW235147   2.872   6.677   6.114 -0.8010  1.2471 -0.5873
11236SOL     OW35148   3.786   0.025  11.810  0.4621 -0.3762 -0.7136
11236SOL    HW135149   3.806   0.118  11.796  1.8508 -1.0632 -4.6894
11236SOL    HW235150   3.703   0.012  11.764  0.5027 -1.1547 -0.5634
11237SOL     OW35151   2.658   2.369   0.169 -0.2130  0.4920  0.6193
11237SOL    HW135152   2.636   2.277   0.186 -1.2200  0.1370 -2.1846
11237SOL    HW235153   2.718   2.367   0.095  2.5438  2.0030  2.6171
11238SOL     OW35154   2.445   6.821   9.829  0.0219  0.2401 -0.4029
11238SOL    HW135155   2.380   6.886   9.857 -1.0781 -0.0078 -2.2257
11238SOL    HW235156   2.393   6.745   9.803  1.1917 -0.7420  0.0420
11239SOL     OW35157   3.838   5.942   0.170 -0.7452 -0.6239  0.3257
11239SOL    HW135158   3.837   5.893   0.253  0.6544 -1.0757  0.1094
11239SOL    HW235159   3.778   5.895   0.113 -0.3042 -1.4151  0.5028
11240SOL     OW35160   4.515   0.059   4.205 -0.3777 -0.0050 -0.0411
11240SOL    HW135161   4.588   0.115   4.232 -0.2842  0.6158 -1.4890
11240SOL    HW235162   4.557  -0.014   4.158 -0.6067 -0.4101  0.3731
11241SOL     OW35163   2.936   6.387   5.947  0.0889 -0.6404 -0.3581
11241SOL    HW135164   3.021   6.376   5.989  0.3551 -1.1167 -1.0091
11241SOL    HW235165   2.885   6.311   5.974  0.4791 -1.2934 -1.3904
11242SOL     OW35166   5.615   7.595  11.866 -0.2130 -0.2266  0.4172
11242SOL    HW135167   5.531   7.565  11.832 -0.4246  0.4145  0.3573
11242SOL    HW235168   5.621   7.557  11.954 -0.2505 -0.8324  0.1584
11243SOL     OW35169   7.318   5.531   4.560  0.4731  0.6747  0.1578
11243SOL    HW135170   7.406   5.493   4.561  0.1493 -0.1480 -0.8180
11243SOL    HW235171   7.325   5.604   4.497  0.8896  1.7619  1.4242
11244SOL     OW35172   7.015   3.271   4.676 -0.3294 -0.8155 -0.4108
11244SOL    HW135173   6.954   3.345   4.668  0.4206 -0.1125  0.2316
11244SOL    HW235174   7.102   3.312   4.675  0.0964 -1.7053 -0.1244
11245SOL     OW35175   1.493   6.878   7.136 -0.1338 -0.2392  0.5006
11245SOL    HW135176   1.514   6.917   7.052 -0.5654  1.3961  1.1196
11245SOL    HW235177   1.567   6.901   7.193 -0.0376 -0.9860  0.6982
11246SOL     OW35178   0.130   4.613   9.525 -0.3233  0.2359 -0.2067
11246SOL    HW135179   0.185   4.670   9.472 -0.6994  1.1635  0.3914
11246SOL    HW235180   0.087   4.671   9.588  0.6300 -0.8927  1.5849
11247SOL     OW35181   0.536   2.034   5.859 -0.1624 -0.2505  0.0493
11247SOL    HW135182   0.610   2.008   5.914  0.0464 -0.1664 -0.1873
11247SOL    HW235183   0.526   2.128   5.876 -1.5800 -0.6584  1.6924
11248SOL     OW35184   1.362   2.348   4.285 -0.0700 -0.5222 -0.2898
11248SOL    HW135185   1.408   2.410   4.228  0.3062 -0.2260  0.3192
11248SOL    HW235186   1.322   2.285   4.225  1.1527 -0.8098 -0.8437
11249SOL     OW35187   0.470   3.906   2.622  0.4345  0.1147  0.4654
11249SOL    HW135188   0.507   3.957   2.694  2.0195 -1.8403  1.1445
11249SOL    HW235189   0.528   3.924   2.548  0.4441  0.0205  0.4498
11250SOL     OW35190   2.141   1.043   4.196 -0.4782 -0.2512 -0.4684
11250SOL    HW135191   2.162   1.025   4.287 -0.6490 -0.3995 -0.4566
11250SOL    HW235192   2.203   1.110   4.169 -0.0065 -0.6681 -0.4318
11251SOL     OW35193   3.437   0.941   7.027 -0.0118 -0.8588 -0.0346
11251SOL    HW135194   3.524   0.905   7.006  1.5057  2.8072 -0.7605
11251SOL    HW235195   3.438   0.951   7.122 -1.2992 -4.3411  0.4869
11252SOL     OW35196   5.954   0.379   8.177  0.1169  0.6832 -0.3997
11252SOL    HW135197   5.890   0.436   8.133  0.5198  1.3699 -0.1065
11252SOL    HW235198   6.005   0.340   8.105 -1.5662 -1.0516 -0.7414
11253SOL     OW35199   2.195   3.491   7.546  0.3985 -0.0417  0.3522
11253SOL    HW135200   2.136   3.562   7.519  1.0245  0.1646 -0.5213
11253SOL    HW235201   2.264   3.536   7.595 -0.8101 -0.4284  2.5576
11254SOL     OW35202   6.980   1.662  11.001  0.5621 -0.5889 -0.4297
11254SOL    HW135203   6.967   1.643  10.908  1.4438  2.4044 -1.2956
11254SOL    HW235204   7.055   1.607  11.026  0.3230 -1.4340 -1.4760
11255SOL     OW35205   5.711   2.197   3.510 -0.0303  0.4758  0.2979
11255SOL    HW135206   5.650   2.125   3.527 -0.9676  1.1709 -0.0065
11255SOL    HW235207   5.788   2.176   3.563  0.2599 -1.4036 -0.7589
11256SOL     OW35208   4.844   7.050  10.116  0.2708 -0.0566  0.2703
11256SOL    HW135209   4.752   7.073  10.129  0.7794  1.4498  1.5858
11256SOL    HW235210   4.858   6.975  10.174 -0.4984 -1.4306 -1.2346
11257SOL     OW35211   6.291   2.027  11.159 -0.1086  1.0149 -0.0279
11257SOL    HW135212   6.232   1.966  11.204  0.5795  0.2650 -0.1142
11257SOL    HW235213   6.358   2.048  11.224  0.0104  1.1757 -0.2004
11258SOL     OW35214   5.528   4.222   0.361 -0.6223  0.2217 -0.2590
11258SOL    HW135215   5.506   4.166   0.287  0.0678  1.3166 -1.3177
11258SOL    HW235216   5.507   4.168   0.438 -2.4591 -0.5225 -1.2045
11259SOL     OW35217   0.213   1.588   6.769  0.4903  0.0089 -0.6927
11259SOL    HW135218   0.149   1.527   6.805  1.3041 -1.1429 -1.1354
11259SOL    HW235219   0.277   1.600   6.839  0.5919 -0.0321 -0.7782
11260SOL     OW35220   7.649   5.640   5.169  0.8167 -0.1499 -0.4870
11260SOL    HW135221   7.562   5.661   5.134  1.2206 -0.6597 -1.8242
11260SOL    HW235222   7.634   5.565   5.227  0.0915  0.9145  0.7667
11261SOL     OW35223   5.981   7.921   3.870 -0.4429  0.2661 -0.0276
11261SOL    HW135224   5.981   8.009   3.907 -0.5911 -0.0937  0.8457
11261SOL    HW235225   5.914   7.874   3.920  1.1698 -0.9848  1.0584
11262SOL     OW35226   0.332   6.885   8.018 -0.3003 -0.2960 -0.1388
11262SOL    HW135227   0.284   6.806   8.043  0.2012 -0.2356  1.0565
11262SOL    HW235228   0.264   6.950   8.001 -0.6904 -0.7449 -0.3205
11263SOL     OW35229   6.864   0.513   7.518 -0.4807 -0.1390  0.2139
11263SOL    HW135230   6.772   0.536   7.533 -0.4123  0.4321 -0.2275
11263SOL    HW235231   6.866   0.418   7.525 -1.2189 -0.2089 -0.3624
11264SOL     OW35232   3.042   3.462   4.694 -0.0037  0.4978 -0.0142
11264SOL    HW135233   3.061   3.549   4.730  1.3164  1.0399 -1.8854
11264SOL    HW235234   2.963   3.474   4.642 -2.0600 -0.3421  2.6487
11265SOL     OW35235   7.539   3.566   0.642 -0.3083 -0.1150  0.3343
11265SOL    HW135236   7.500   3.510   0.576  0.9193 -0.0112 -0.5112
11265SOL    HW235237   7.546   3.510   0.720  0.8297 -1.1443 -0.4698
11266SOL     OW35238   2.109   0.024   9.386 -0.0508  0.0690  0.4392
11266SOL    HW135239   2.168   0.049   9.315 -2.0218 -0.3740 -1.4381
11266SOL    HW235240   2.164   0.030   9.465  2.0556  1.1557 -0.9973
11267SOL     OW35241   0.378   7.546   7.295  0.2045  0.3691  0.0264
11267SOL    HW135242   0.305   7.608   7.298 -1.1693 -1.1592 -0.2865
11267SOL    HW235243   0.386   7.524   7.203 -1.8402 -2.6511  0.4257
11268SOL     OW35244   1.590   1.828   7.382 -0.1386  0.2968  0.2237
11268SOL    HW135245   1.613   1.818   7.475 -0.0095  0.0628  0.1678
11268SOL    HW235246   1.544   1.746   7.361  2.5581 -1.0900 -0.7505
11269SOL     OW35247   2.594   6.084   4.277  0.2785  0.0193 -0.0390
11269SOL    HW135248   2.622   5.992   4.277  0.3114  0.0293  0.3621
11269SOL    HW235249   2.651   6.126   4.213 -0.0404 -0.3315 -0.5608
11270SOL     OW35250   1.222   7.422  11.088 -0.2071 -0.1392 -0.4000
11270SOL    HW135251   1.300   7.450  11.040 -0.4888 -0.1771 -0.8888
11270SOL    HW235252   1.173   7.369  11.025 -0.3333 -0.6201  0.0943
11271SOL     OW35253   5.343   3.710   2.993 -0.0166  0.1618  0.1089
11271SOL    HW135254   5.374   3.794   2.959 -0.9730  0.5380  0.1262
11271SOL    HW235255   5.258   3.698   2.951  0.5395 -1.2875 -0.6645
11272SOL     OW35256   0.997   1.645   8.874 -0.4843 -0.5394  0.1721
11272SOL    HW135257   0.910   1.682   8.885 -1.1158 -1.3973 -1.5531
11272SOL    HW235258   0.982   1.552   8.860  0.8012 -0.8764  0.8844
11273SOL     OW35259   0.669   5.411  11.055 -0.0336  0.6409 -0.4839
11273SOL    HW135260   0.750   5.369  11.084  0.6956  1.4529 -1.2795
11273SOL    HW235261   0.698   5.490  11.009 -1.3141  1.5228  0.1371
11274SOL     OW35262   0.081   7.505   6.365 -0.1290  0.0255 -0.0922
11274SOL    HW135263   0.020   7.527   6.435 -0.6755  0.2269 -0.6224
11274SOL    HW235264   0.166   7.531   6.398  0.0870 -2.5836  1.7284
11275SOL     OW35265   6.208   7.415   8.923 -0.0247  0.2587  0.0293
11275SOL    HW135266   6.237   7.352   8.988 -2.1569 -0.5360  0.2956
11275SOL    HW235267   6.169   7.362   8.853 -0.9150  1.2067 -0.2306
11276SOL     OW35268   6.397   5.968   7.050  0.1173 -0.2322  0.0426
11276SOL    HW135269   6.330   5.900   7.054  0.8323 -1.1087 -1.5964
11276SOL    HW235270   6.427   5.977   7.140 -2.2593  0.3038  0.8570
11277SOL     OW35271   7.750   5.303   9.539  0.2580  0.5747  0.0208
11277SOL    HW135272   7.825   5.325   9.484 -0.7607  2.5788 -0.6572
11277SOL    HW235273   7.774   5.336   9.626  0.6127  0.1978  0.0682
11278SOL     OW35274   7.361   6.525   9.967 -0.0044 -0.4368 -0.1369
11278SOL    HW135275   7.339   6.614   9.994  1.2119 -0.5938  1.5387
11278SOL    HW235276   7.451   6.531   9.937  0.5428 -1.3007  1.2292
11279SOL     OW35277   1.516   3.639  10.355  0.6577 -0.4084  0.0306
11279SOL    HW135278   1.537   3.705  10.288 -0.0820  0.0873  0.2743
11279SOL    HW235279   1.464   3.687  10.420 -0.7357 -1.4511 -0.2688
11280SOL     OW35280   1.696   6.803   1.635  0.0404  0.1324  0.7622
11280SOL    HW135281   1.702   6.838   1.724  1.5391  0.3547  0.5989
11280SOL    HW235282   1.720   6.877   1.579 -1.8967  0.2939  0.0818
11281SOL     OW35283   0.628   0.041   3.245 -0.1233 -0.1184 -0.4807
11281SOL    HW135284   0.574   0.118   3.267 -1.3865 -1.1217  0.1097
11281SOL    HW235285   0.676   0.066   3.167  2.2574  2.5671  1.6241
11282SOL     OW35286   0.070   0.734  10.910 -0.2280 -0.0919 -0.1469
11282SOL    HW135287  -0.017   0.743  10.872  0.3122 -0.6282 -1.5890
11282SOL    HW235288   0.124   0.700  10.838  1.0945 -0.0822  0.8062
11283SOL     OW35289   5.733   3.008   8.986  0.1070 -0.1803 -0.3493
11283SOL    HW135290   5.779   2.967   9.060 -1.1091  0.4648  0.8214
11283SOL    HW235291   5.802   3.043   8.931  1.2245 -3.5877 -1.3342
11284SOL     OW35292   3.687   7.495   6.486 -0.6475  0.5667  0.1958
11284SOL    HW135293   3.613   7.543   6.522 -1.0328  1.6361 -1.8667
11284SOL    HW235294   3.726   7.555   6.423  0.5157 -0.8590 -0.5091
11285SOL     OW35295   1.449   2.519   4.772 -0.0135 -0.0750 -0.4671
11285SOL    HW135296   1.468   2.597   4.719  1.6254 -0.9230 -1.2285
11285SOL    HW235297   1.412   2.457   4.710  0.9869 -0.7303 -0.4325
11286SOL     OW35298   6.193   2.593   4.039  0.3661  0.8395 -0.0523
11286SOL    HW135299   6.163   2.604   4.129 -0.2884 -3.4778  0.4550
11286SOL    HW235300   6.134   2.647   3.987 -1.7587  0.4564  1.8275
11287SOL     OW35301   6.818   7.316   4.273  0.2849  0.0838 -0.1551
11287SOL    HW135302   6.798   7.394   4.326  0.4680 -0.9864  1.5757
11287SOL    HW235303   6.899   7.340   4.227  0.3407  0.9285  0.3455
11288SOL     OW35304   0.256   1.135   3.400 -0.9299 -0.1437  0.6660
11288SOL    HW135305   0.217   1.048   3.393  1.5622 -1.3586  0.8598
11288SOL    HW235306   0.340   1.127   3.355 -0.5903  2.1681  0.7772
11289SOL     OW35307   2.380   1.413   8.428  0.0139  0.0340 -0.2871
11289SOL    HW135308   2.330   1.334   8.409 -0.3336  0.2171 -0.1457
11289SOL    HW235309   2.468   1.394   8.396  0.3231 -0.9830  1.0639
11290SOL     OW35310   7.791   0.104   5.503  0.0980  0.2257  0.0684
11290SOL    HW135311   7.873   0.142   5.471 -0.3242  3.2057  2.1065
11290SOL    HW235312   7.723   0.146   5.450 -0.2355 -0.7980 -0.3348
11291SOL     OW35313   3.712   7.643  11.345 -0.5520 -0.1646  0.4336
11291SOL    HW135314   3.695   7.605  11.431  0.6758  1.7301  1.5754
11291SOL    HW235315   3.716   7.568  11.286 -0.1683 -1.6228  2.2330
11292SOL     OW35316   6.400   1.818   1.551 -0.7572  0.2793 -0.3864
11292SOL    HW135317   6.423   1.849   1.464  2.1031 -1.4017 -0.3534
11292SOL    HW235318   6.351   1.738   1.537 -0.3454  0.0398 -0.4902
11293SOL     OW35319   2.509   3.987   3.996 -0.1508  0.0726  0.5467
11293SOL    HW135320   2.533   4.035   3.917  0.7939 -1.3387 -0.0634
11293SOL    HW235321   2.500   3.896   3.967 -1.2223 -0.2504  1.7862
11294SOL     OW35322   2.521   0.755   3.211  0.4006  0.3439 -0.2758
11294SOL    HW135323   2.446   0.712   3.252 -0.8978  2.2395 -0.5526
11294SOL    HW235324   2.487   0.791   3.130  2.1066 -0.3636 -1.3728
11295SOL     OW35325   1.907   0.137   9.141 -0.3131 -0.6956  0.0767
11295SOL    HW135326   1.907   0.112   9.049  3.2123 -2.2487  0.3070
11295SOL    HW235327   1.959   0.217   9.144 -0.9624 -0.2891  0.6610
11296SOL     OW35328   7.339   1.185   9.945  0.3471  0.1053 -0.4911
11296SOL    HW135329   7.267   1.137   9.904 -0.8290  3.5671 -2.9097
11296SOL    HW235330   7.411   1.178   9.883  1.0203 -0.4536  0.3153
11297SOL     OW35331   1.457   7.271   3.965 -0.0542 -0.0669 -0.5585
11297SOL    HW135332   1.540   7.229   3.987 -1.0813 -1.3576  1.1335
11297SOL    HW235333   1.455   7.272   3.869  3.1516  2.6753 -0.7962
11298SOL     OW35334   2.134   5.466  10.978 -0.0618  0.7605 -0.1109
11298SOL    HW135335   2.087   5.388  10.951  0.3836  0.7655 -0.9349
11298SOL    HW235336   2.105   5.482  11.068  0.5458 -0.8836  0.4143
11299SOL     OW35337   4.041   0.902   7.834 -0.4346  0.0234  0.5040
11299SOL    HW135338   4.046   0.983   7.784 -1.6794 -0.2416 -0.0928
11299SOL    HW235339   4.118   0.852   7.806 -1.9850 -0.8822 -2.5771
11300SOL     OW35340   0.043   3.322   9.807  0.2133  0.5922 -0.1601
11300SOL    HW135341   0.025   3.236   9.769  1.8205  0.6606 -1.1878
11300SOL    HW235342  -0.020   3.331   9.878  1.0495 -2.1194  1.0409
11301SOL     OW35343   0.178   7.818   3.853 -0.1163 -0.1422 -0.1551
11301SOL    HW135344   0.136   7.898   3.886  0.3573  0.6195 -1.3319
11301SOL    HW235345   0.272   7.837   3.858 -0.0127 -0.5235 -0.7090
11302SOL     OW35346   7.235   5.705   7.254 -0.1040  0.2440 -0.1379
11302SOL    HW135347   7.263   5.768   7.188  1.1274 -0.0082  0.1033
11302SOL    HW235348   7.309   5.643   7.260 -0.7814 -0.5251  0.4745
11303SOL     OW35349   2.245   5.035   3.524  0.2230 -0.5286 -0.7148
11303SOL    HW135350   2.213   5.057   3.437  1.0954 -1.0736 -1.1871
11303SOL    HW235351   2.170   4.995   3.569  0.2068 -1.7138 -1.7614
11304SOL     OW35352   2.852   7.081   2.857  0.5263  0.5591 -0.0702
11304SOL    HW135353   2.816   7.091   2.945  0.1787  0.5794 -0.2111
11304SOL    HW235354   2.814   6.999   2.825  2.6397 -0.8012  0.7400
11305SOL     OW35355   6.964   2.284   5.741  0.1421  0.7018  0.1795
11305SOL    HW135356   7.010   2.207   5.709 -0.1772  0.0737  1.2041
11305SOL    HW235357   7.020   2.319   5.810 -1.1844 -0.4697  1.9274
11306SOL     OW35358   3.208   7.161   4.426  0.2465 -0.7541  0.0766
11306SOL    HW135359   3.132   7.104   4.435 -2.0422  2.1558  0.4860
11306SOL    HW235360   3.183   7.224   4.359  2.3370  0.2667  0.1876
11307SOL     OW35361   1.139   0.414   8.584 -0.1879  0.7249 -0.2993
11307SOL    HW135362   1.165   0.505   8.597  1.0702  0.2324  0.8481
11307SOL    HW235363   1.108   0.385   8.670 -1.8772  0.4519 -0.9785
11308SOL     OW35364   6.111   5.839   3.327  0.5085 -0.4597 -0.0467
11308SOL    HW135365   6.110   5.812   3.235  0.4070 -0.6917  0.0211
11308SOL    HW235366   6.123   5.757   3.376  0.0246 -0.4031  0.1683
11309SOL     OW35367   6.145   0.187   2.100 -0.6176 -0.1240 -0.0741
11309SOL    HW135368   6.140   0.208   2.193  2.0840  0.9594 -0.1056
11309SOL    HW235369   6.117   0.268   2.056 -0.4475 -0.1409 -0.2112
11310SOL     OW35370   3.535   7.819   4.338 -0.2436  0.1904 -0.0845
11310SOL    HW135371   3.610   7.862   4.297 -0.5054 -0.7139 -1.5912
11310SOL    HW235372   3.571   7.740   4.378  0.1721  1.5116  2.3572
11311SOL     OW35373   7.538   2.266  11.488  0.3451  0.7335 -0.0196
11311SOL    HW135374   7.552   2.234  11.577 -1.6277 -1.1648 -0.3060
11311SOL    HW235375   7.490   2.348  11.500  1.5072  1.3359  0.6642
11312SOL     OW35376   1.229   4.992   8.752  0.2719 -0.1990  0.3191
11312SOL    HW135377   1.173   4.997   8.675 -0.1027 -0.6499  0.5608
11312SOL    HW235378   1.305   5.046   8.730 -0.8872  1.6256  0.5524
11313SOL     OW35379   6.457   4.040   0.380 -0.5132  0.3438  0.2677
11313SOL    HW135380   6.460   3.944   0.372  0.6070  0.4395 -0.9811
11313SOL    HW235381   6.386   4.066   0.322 -1.4527  0.2392  1.3354
11314SOL     OW35382   3.800   2.411   6.702  0.6018  0.4893  0.5438
11314SOL    HW135383   3.873   2.436   6.645 -1.6250  1.9598 -1.9212
11314SOL    HW235384   3.832   2.426   6.791  2.9775  1.9565 -0.4579
11315SOL     OW35385   4.108   5.203   6.466  0.0849 -0.3752  0.3952
11315SOL    HW135386   4.029   5.164   6.503  0.9201 -1.4778  1.0749
11315SOL    HW235387   4.155   5.238   6.542 -0.0616  0.8752 -0.0771
11316SOL     OW35388   7.139   5.325   1.108  0.6938 -0.4464  0.2741
11316SOL    HW135389   7.190   5.360   1.034 -0.9836  0.6299 -0.4191
11316SOL    HW235390   7.171   5.373   1.184  0.5010  0.4751 -0.2106
11317SOL     OW35391   4.052   0.320   2.962 -0.0303 -0.0733  0.0449
11317SOL    HW135392   4.031   0.301   2.871  0.5778 -0.1812 -0.0798
11317SOL    HW235393   4.088   0.237   2.996 -0.2017 -0.0175  0.3631
11318SOL     OW35394   4.142   7.535   3.871 -0.5613 -0.2915  0.6763
11318SOL    HW135395   4.145   7.503   3.961  2.4918  0.3500  0.8994
11318SOL    HW235396   4.198   7.613   3.871 -0.9867  0.0986 -1.6541
11319SOL     OW35397   0.814   5.106   2.915 -0.1144 -0.1508 -0.3462
11319SOL    HW135398   0.755   5.110   2.840  1.1213  1.6951 -1.2727
11319SOL    HW235399   0.847   5.195   2.925 -0.2189 -0.3329  2.4045
11320SOL     OW35400   7.033   3.920   7.462  0.8092 -0.3184 -0.4785
11320SOL    HW135401   7.023   3.904   7.368  0.3634  1.5544 -0.7899
11320SOL    HW235402   7.123   3.952   7.471  1.0701 -1.1111 -0.1464
11321SOL     OW35403   0.980   4.666   9.511 -0.1870  0.1523  0.2735
11321SOL    HW135404   1.044   4.715   9.563  0.1716  1.3823 -1.2425
11321SOL    HW235405   0.970   4.717   9.431 -2.4542 -0.4607  0.0944
11322SOL     OW35406   0.281   2.717  12.217  0.3229 -0.5818 -0.3119
11322SOL    HW135407   0.249   2.643  12.269 -0.3542  0.5087  0.8831
11322SOL    HW235408   0.212   2.731  12.152 -1.6660  1.4861  1.9899
11323SOL     OW35409   1.629   3.295   6.591  0.0630  0.1143  0.3398
11323SOL    HW135410   1.605   3.350   6.516  2.2091 -0.2704 -0.6845
11323SOL    HW235411   1.605   3.348   6.667 -1.7449  0.7099 -0.5780
11324SOL     OW35412   4.983   7.885   4.415 -0.4206  0.0536 -0.0740
11324SOL    HW135413   5.041   7.899   4.490  0.4590  0.2153 -0.7617
11324SOL    HW235414   4.920   7.957   4.420 -1.2975 -0.7760  1.3359
11325SOL     OW35415   2.277   0.805   6.844  0.1973 -0.2211 -0.2221
11325SOL    HW135416   2.268   0.887   6.892  1.5705 -0.4889  0.5634
11325SOL    HW235417   2.200   0.801   6.787 -0.2994  1.2088  0.3123
11326SOL     OW35418   5.837   3.980   0.526  0.4037  0.1758  0.6603
11326SOL    HW135419   5.853   3.888   0.544  1.0491 -0.4949 -2.7123
11326SOL    HW235420   5.922   4.022   0.542  0.3901  0.0204  1.1708
11327SOL     OW35421   1.114   3.197   3.625 -0.1594 -0.5698  0.4972
11327SOL    HW135422   1.104   3.292   3.620 -1.2641 -0.7164 -0.6336
11327SOL    HW235423   1.179   3.177   3.557 -0.4932 -0.6918  0.2127
11328SOL     OW35424   7.357   5.838  11.774  0.1795 -0.0554  0.4727
11328SOL    HW135425   7.354   5.748  11.805  1.0306 -0.0688  0.5322
11328SOL    HW235426   7.289   5.883  11.825 -0.3245 -0.6834  0.3595
11329SOL     OW35427   1.805   3.136   2.847 -0.2450 -0.1339  0.3194
11329SOL    HW135428   1.792   3.212   2.790 -0.3377 -1.0083 -0.8794
11329SOL    HW235429   1.849   3.171   2.924 -0.7217  1.2106  0.0104
11330SOL     OW35430   6.337   0.425  10.563  0.4284  0.5701 -0.1970
11330SOL    HW135431   6.395   0.350  10.555  0.8488  0.8360  0.2744
11330SOL    HW235432   6.313   0.426  10.656  0.4915  1.0568 -0.1846
11331SOL     OW35433   0.655   1.137  10.004  0.1037  0.5168  0.0564
11331SOL    HW135434   0.587   1.177  10.058 -0.9872  0.8617 -1.5073
11331SOL    HW235435   0.737   1.161  10.047 -0.6927  1.2575  1.2184
11332SOL     OW35436   2.245   7.021   9.989 -0.1747 -0.3235  0.2404
11332SOL    HW135437   2.195   7.030  10.070  0.1522 -0.2562  0.4379
11332SOL    HW235438   2.314   7.087   9.996 -0.1875 -0.2698 -0.1250
11333SOL     OW35439   6.678   5.608   7.666  0.1031  0.6878  0.4156
11333SOL    HW135440   6.614   5.583   7.599 -1.2742 -1.7646  2.4691
11333SOL    HW235441   6.763   5.598   7.623 -0.7455  0.3186 -1.2660
11334SOL     OW35442   4.619   0.573   7.765  0.3193 -0.2112  0.4540
11334SOL    HW135443   4.542   0.584   7.709  1.2526 -2.6397 -1.5456
11334SOL    HW235444   4.690   0.552   7.704  1.7686 -1.4622  2.4320
11335SOL     OW35445   4.257   5.908   2.217 -0.2423  0.0652  0.5515
11335SOL    HW135446   4.343   5.946   2.197 -0.9761  1.6882  0.3095
11335SOL    HW235447   4.227   5.957   2.293 -0.6523 -1.0252  1.1160
11336SOL     OW35448   6.167   1.657   4.042  0.0050 -0.2900 -0.9233
11336SOL    HW135449   6.221   1.580   4.057  0.6715  0.2792 -0.3131
11336SOL    HW235450   6.164   1.701   4.127 -2.2480 -0.8045 -0.6540
11337SOL     OW35451   3.191   0.835   5.736  0.0371 -0.0992 -0.0734
11337SOL    HW135452   3.285   0.852   5.739  0.0397 -0.1582  0.2337
11337SOL    HW235453   3.185   0.743   5.710  0.0274  0.2814 -1.5276
11338SOL     OW35454   5.063   1.251   4.608  0.1066  0.2827  0.6217
11338SOL    HW135455   5.083   1.294   4.691 -1.9020  0.6027  0.9978
11338SOL    HW235456   5.032   1.321   4.551 -0.4139 -0.2168  0.2728
11339SOL     OW35457   4.511   6.012   9.801 -0.1017 -0.4262 -0.1990
11339SOL    HW135458   4.506   5.967   9.717 -0.8784 -1.3886  0.3449
11339SOL    HW235459   4.546   6.099   9.779 -2.5264  0.2369 -1.8823
11340SOL     OW35460   5.482   5.956   6.578 -0.0295 -0.4251 -0.2974
11340SOL    HW135461   5.567   5.931   6.613  0.3614  2.0019  0.7097
11340SOL    HW235462   5.419   5.904   6.628  0.6949  0.8272  2.1194
11341SOL     OW35463   7.693   2.536   4.616  0.3000  0.7364 -0.0952
11341SOL    HW135464   7.707   2.523   4.710  1.6354  1.3743 -0.1954
11341SOL    HW235465   7.598   2.527   4.605  0.4304 -3.2759  0.6879
11342SOL     OW35466   4.720   7.912   0.459 -0.1534  0.0511  0.0504
11342SOL    HW135467   4.786   7.940   0.396  1.1027 -0.6272  1.0025
11342SOL    HW235468   4.770   7.866   0.526 -1.6922 -1.1440  0.4343
11343SOL     OW35469   4.151   6.693   0.591  0.0261 -0.2527 -0.1415
11343SOL    HW135470   4.179   6.701   0.500 -2.3159  0.9764 -0.8104
11343SOL    HW235471   4.109   6.608   0.596 -2.1664  0.7248 -0.9449
11344SOL     OW35472   2.119   2.002   7.208  0.2053 -0.3907  0.4719
11344SOL    HW135473   2.027   1.984   7.228  0.0343  0.9451  0.9952
11344SOL    HW235474   2.117   2.084   7.160  1.1075 -0.5492  0.1539
11345SOL     OW35475   6.200   0.433   0.652  0.0742 -0.2398 -0.0035
11345SOL    HW135476   6.163   0.472   0.731  2.1535  0.3104  0.7711
11345SOL    HW235477   6.191   0.500   0.585  0.4695  0.2272  0.4091
11346SOL     OW35478   3.851   2.715  10.429 -0.2696 -0.0187 -0.4496
11346SOL    HW135479   3.943   2.727  10.405 -0.0513 -0.8761 -0.0934
11346SOL    HW235480   3.849   2.633  10.478 -0.9796  0.8134  0.9820
11347SOL     OW35481   0.590   1.672  10.288 -0.7118  0.2907 -0.7907
11347SOL    HW135482   0.501   1.661  10.255 -1.0245  0.8989 -0.1742
11347SOL    HW235483   0.584   1.744  10.350 -0.4378 -1.6402  1.6432
11348SOL     OW35484   1.576   5.498   9.101  0.6187 -0.4155 -0.4575
11348SOL    HW135485   1.504   5.537   9.053 -0.1236 -0.1777  0.8182
11348SOL    HW235486   1.645   5.564   9.099 -0.4916  0.8809  1.3687
11349SOL     OW35487   2.758   3.916   6.813 -0.5479 -0.0633 -0.5187
11349SOL    HW135488   2.676   3.945   6.773  0.7878  2.6658 -1.5853
11349SOL    HW235489   2.812   3.888   6.739  0.8046  1.9566 -0.3788
11350SOL     OW35490   5.707   1.797   5.555  0.0309  0.1175 -0.2350
11350SOL    HW135491   5.744   1.723   5.604 -1.4043 -0.3022  0.2609
11350SOL    HW235492   5.613   1.782   5.557 -0.1677  1.0234 -1.6856
11351SOL     OW35493   1.583   3.228   9.226 -0.3425  0.3402  0.0319
11351SOL    HW135494   1.572   3.148   9.173 -2.3237  0.6013 -0.0230
11351SOL    HW235495   1.656   3.274   9.184 -1.9535  0.6400 -2.6958
11352SOL     OW35496   5.421   5.479   5.116  0.7753  0.5138 -0.1981
11352SOL    HW135497   5.451   5.410   5.057 -1.9792 -1.6545  0.6954
11352SOL    HW235498   5.346   5.518   5.071  0.3901  0.7750  0.6466
11353SOL     OW35499   0.644   2.165   2.131  0.3100  0.2620 -0.5176
11353SOL    HW135500   0.710   2.121   2.077 -0.0881 -0.4456 -0.4480
11353SOL    HW235501   0.670   2.145   2.221  0.9646  1.4275 -0.4374
11354SOL     OW35502   1.787   7.234   3.038  0.1235  0.1741 -0.4764
11354SOL    HW135503   1.774   7.257   3.130  1.0951  1.0489 -0.5471
11354SOL    HW235504   1.699   7.208   3.008 -0.3924  0.7739  0.4435
11355SOL     OW35505   4.632   0.021  10.736 -0.3842 -0.0623 -0.2893
11355SOL    HW135506   4.629  -0.029  10.817  1.1782 -0.8288 -0.6727
11355SOL    HW235507   4.720   0.059  10.734 -0.2961 -0.2707 -1.7386
11356SOL     OW35508   1.129   2.122   4.355  0.4048 -0.3518 -0.2035
11356SOL    HW135509   1.113   2.073   4.275  0.0088 -0.2014 -0.2169
11356SOL    HW235510   1.059   2.186   4.358 -1.0685 -1.9326  1.5241
11357SOL     OW35511   0.260   0.053  10.056  0.1656 -0.1442  0.1079
11357SOL    HW135512   0.220   0.139  10.065  0.0627 -0.3156  1.5364
11357SOL    HW235513   0.196  -0.007  10.094  0.2480 -0.8497 -0.8428
11358SOL     OW35514   2.336   6.847   1.737  0.2431 -0.2270  0.2232
11358SOL    HW135515   2.295   6.764   1.716 -0.1979 -0.0902  0.5379
11358SOL    HW235516   2.421   6.843   1.694  0.4120 -1.0235  0.6101
11359SOL     OW35517   7.663   4.856   2.330 -0.2915 -0.5002  0.2870
11359SOL    HW135518   7.678   4.763   2.347  2.0175 -0.2009  0.2006
11359SOL    HW235519   7.642   4.861   2.237  0.4877 -0.8742  0.0835
11360SOL     OW35520   4.325   2.510   0.636 -0.3908  0.2598  0.3123
11360SOL    HW135521   4.346   2.453   0.562  0.6788  0.8935  0.1053
11360SOL    HW235522   4.312   2.597   0.596 -2.2601  0.1574  0.5837
11361SOL     OW35523   7.008   3.911   5.785 -0.4523  0.2208 -0.1648
11361SOL    HW135524   7.060   3.835   5.759  1.1397  1.1842  0.0647
11361SOL    HW235525   7.067   3.986   5.774 -1.6154  1.3102  0.6580
11362SOL     OW35526   6.796   1.514   2.686  0.1719 -0.2280  0.2476
11362SOL    HW135527   6.787   1.609   2.696  0.3075 -0.1062 -0.7402
11362SOL    HW235528   6.713   1.479   2.717 -1.7715  0.5133 -3.5256
11363SOL     OW35529   4.532   2.423   1.462 -0.3351  0.0355  0.0438
11363SOL    HW135530   4.471   2.488   1.497  0.5836  0.4828  0.8672
11363SOL    HW235531   4.526   2.349   1.521 -1.0625 -0.4747 -0.6504
11364SOL     OW35532   4.948   6.949   9.487  0.3089 -0.0195 -0.0274
11364SOL    HW135533   4.920   6.865   9.524 -1.6727  0.3671 -0.5244
11364SOL    HW235534   4.960   7.006   9.562  0.4758 -0.4142  0.2484
11365SOL     OW35535   2.942   5.389  10.583  0.3242  0.4404  0.7350
11365SOL    HW135536   2.858   5.395  10.629 -0.4035 -0.5248 -0.3951
11365SOL    HW235537   3.004   5.362  10.651 -0.9531 -2.1686  0.9828
11366SOL     OW35538   6.761   2.772   3.859 -0.1657 -0.4961  0.5067
11366SOL    HW135539   6.739   2.765   3.952 -0.1952  0.1141  0.5495
11366SOL    HW235540   6.840   2.718   3.849  0.9585  0.9329  1.2920
11367SOL     OW35541   7.087   5.380   5.704 -0.1653  0.0497  0.0807
11367SOL    HW135542   7.030   5.457   5.700  1.1353  1.0252 -0.5487
11367SOL    HW235543   7.051   5.321   5.638 -1.0808  0.1730  0.4473
11368SOL     OW35544   6.204   0.166   4.281 -0.1302 -0.1414 -0.3622
11368SOL    HW135545   6.267   0.107   4.322 -0.5866 -1.5993 -1.6462
11368SOL    HW235546   6.197   0.135   4.190 -2.1824  0.3807 -0.4353
11369SOL     OW35547   6.279   3.052   4.128 -0.0644  0.1909 -0.2821
11369SOL    HW135548   6.361   3.005   4.142 -0.2532 -0.6957 -1.8657
11369SOL    HW235549   6.304   3.129   4.077  0.2778  2.0336  2.5108
11370SOL     OW35550   4.003   6.963   9.710 -0.3637 -0.2303  0.5029
11370SOL    HW135551   3.991   6.958   9.805 -1.1849  0.0974  0.4320
11370SOL    HW235552   3.977   7.053   9.688 -1.2452 -0.6341 -0.1619
11371SOL     OW35553   6.559   0.859   1.714 -0.1919  0.2984  0.0703
11371SOL    HW135554   6.527   0.871   1.804 -1.5110  0.4099 -0.3959
11371SOL    HW235555   6.525   0.773   1.688  0.8908 -0.1075 -0.0511
11372SOL     OW35556   4.748   6.141   6.780 -0.2315  0.3568  0.2620
11372SOL    HW135557   4.768   6.081   6.852 -1.3901  0.0699  0.3564
11372SOL    HW235558   4.779   6.096   6.702 -0.0800  0.1282  0.4520
11373SOL     OW35559   2.608   4.740   3.868 -0.1708  0.0364 -0.2156
11373SOL    HW135560   2.612   4.653   3.908  0.1513 -0.7846 -1.9664
11373SOL    HW235561   2.583   4.798   3.940 -2.7700 -1.8116  0.5058
11374SOL     OW35562   6.433   4.732   4.614 -0.0707  0.0830 -0.4178
11374SOL    HW135563   6.521   4.735   4.651  0.6227 -1.9211 -1.7578
11374SOL    HW235564   6.446   4.718   4.521 -1.7934 -1.2734 -0.5112
11375SOL     OW35565   6.069   0.734   4.033  0.2191 -0.1930 -0.1332
11375SOL    HW135566   6.099   0.816   3.995  0.2646 -0.5375 -0.8625
11375SOL    HW235567   5.987   0.757   4.077 -0.4360  0.0223 -1.3925
11376SOL     OW35568   4.695   6.008   1.788  0.2968 -0.2504 -0.3489
11376SOL    HW135569   4.700   6.104   1.792  0.4171 -0.2406 -0.6685
11376SOL    HW235570   4.602   5.988   1.796  0.0703 -0.0078 -1.9806
11377SOL     OW35571   3.920   0.914   9.700  0.0997  0.6917  0.0627
11377SOL    HW135572   3.913   0.854   9.626 -0.9650  1.5358 -0.5439
11377SOL    HW235573   4.006   0.896   9.737  1.1097  0.9637 -2.0104
11378SOL     OW35574   3.233   1.829   1.948 -0.4683 -0.6833  0.0118
11378SOL    HW135575   3.316   1.836   1.902 -0.2002  2.5125  0.7506
11378SOL    HW235576   3.244   1.881   2.027 -3.0999 -0.2570  0.2092
11379SOL     OW35577   0.970   4.780  10.228 -0.0280 -0.6518 -0.0033
11379SOL    HW135578   1.005   4.809  10.312  0.4631  0.0255 -0.4271
11379SOL    HW235579   1.029   4.709  10.201  1.4195  0.8083 -0.9483
11380SOL     OW35580   0.093   6.864  11.662 -0.4589 -0.7741 -0.6589
11380SOL    HW135581   0.180   6.896  11.640 -1.1913  2.5157  0.5578
11380SOL    HW235582   0.082   6.886  11.755 -2.8697 -0.1704 -1.0058
11381SOL     OW35583   3.349   4.674   6.367 -0.6115 -0.8653 -0.0056
11381SOL    HW135584   3.272   4.617   6.362 -0.3029 -1.3622  0.7737
11381SOL    HW235585   3.415   4.631   6.314  0.3226 -2.3996  2.2461
11382SOL     OW35586   0.602   7.298   3.862 -0.2433  0.1528 -1.1221
11382SOL    HW135587   0.668   7.367   3.856 -0.2807  0.5410  1.6578
11382SOL    HW235588   0.653   7.217   3.858 -0.0777  0.3051 -3.1304
11383SOL     OW35589   2.292   6.880  11.803  0.3492 -0.5355 -0.3922
11383SOL    HW135590   2.373   6.829  11.808  1.1924  0.7372 -0.6567
11383SOL    HW235591   2.222   6.815  11.813  1.3742 -1.7826 -1.0738
11384SOL     OW35592   1.183   7.255   7.514 -0.3952 -0.4310 -0.7254
11384SOL    HW135593   1.165   7.338   7.558 -2.2777 -0.7653 -0.7975
11384SOL    HW235594   1.111   7.244   7.453  0.0365 -1.9411 -1.0054
11385SOL     OW35595   2.760   1.565   4.856  0.4922  0.4054  0.6119
11385SOL    HW135596   2.706   1.511   4.914 -1.6042  0.9161 -0.7650
11385SOL    HW235597   2.780   1.507   4.782  0.5787  0.6568  0.4368
11386SOL     OW35598   7.313   1.409   6.183  0.1009 -0.1622  0.0890
11386SOL    HW135599   7.375   1.360   6.238  0.2975 -0.0167 -0.0042
11386SOL    HW235600   7.261   1.341   6.140  1.2688 -0.3410 -1.0931
11387SOL     OW35601   1.979   1.379   4.132 -0.0094  0.2351 -0.1904
11387SOL    HW135602   2.042   1.438   4.173  1.1555 -0.6044 -0.6885
11387SOL    HW235603   1.975   1.304   4.192  0.0607 -0.0548 -0.5462
11388SOL     OW35604   3.321   5.023   8.409 -0.4135 -0.2969 -0.1466
11388SOL    HW135605   3.294   5.031   8.318  2.2708  0.8278 -0.9369
11388SOL    HW235606   3.349   4.932   8.418 -0.0724 -0.2453 -0.6551
11389SOL     OW35607   0.811   3.892   2.836  0.2633 -0.0804  0.2181
11389SOL    HW135608   0.801   3.838   2.914 -1.2938 -0.9909 -0.5618
11389SOL    HW235609   0.739   3.955   2.841  0.5565  0.2853 -0.1381
11390SOL     OW35610   0.565   5.375  10.100  0.8171 -0.0601  0.0790
11390SOL    HW135611   0.627   5.313  10.137 -0.7586 -2.9779 -1.8097
11390SOL    HW235612   0.491   5.373  10.160  0.5139 -0.4984 -0.3084
11391SOL     OW35613   5.749   4.321   8.737  0.0291  0.0264 -0.3261
11391SOL    HW135614   5.753   4.235   8.695  1.4988 -0.4915  0.7840
11391SOL    HW235615   5.801   4.378   8.681  0.0772 -0.1134 -0.4222
11392SOL     OW35616   3.745   6.119   8.987 -0.0498  0.6977 -0.1970
11392SOL    HW135617   3.697   6.078   8.916  0.8886  0.9366 -0.9969
11392SOL    HW235618   3.775   6.046   9.041 -0.2091  0.4688 -0.4156
11393SOL     OW35619   2.826   7.663   8.283  0.4247 -0.5735 -0.5572
11393SOL    HW135620   2.875   7.656   8.201  0.4255  1.2622 -0.7673
11393SOL    HW235621   2.892   7.655   8.351  0.6315 -0.7086 -0.7713
11394SOL     OW35622   7.400   1.319   4.219 -0.0946 -0.1917 -0.2968
11394SOL    HW135623   7.474   1.363   4.262  0.0550 -0.1108 -0.6347
11394SOL    HW235624   7.346   1.391   4.185  0.5549 -0.2618 -1.5380
11395SOL     OW35625   5.604   7.545   3.156  0.3140 -0.4566  0.0308
11395SOL    HW135626   5.583   7.452   3.165  1.0008 -0.4276  2.9079
11395SOL    HW235627   5.613   7.577   3.246  0.1258  2.4118 -0.8566
11396SOL     OW35628   0.001   6.592   3.050  0.6279 -0.0497 -0.1679
11396SOL    HW135629  -0.095   6.595   3.048  0.6687  1.9041 -0.2059
11396SOL    HW235630   0.028   6.638   2.971  1.6245 -1.7487 -0.8582
11397SOL     OW35631   7.034   4.546   6.490  0.4697 -0.0262  0.2199
11397SOL    HW135632   7.012   4.541   6.584  0.7897  0.1551  0.3051
11397SOL    HW235633   7.007   4.634   6.464  1.9415  0.5447  0.5476
11398SOL     OW35634   2.031   1.327   1.669  0.1464  0.3512 -0.3721
11398SOL    HW135635   1.981   1.268   1.726 -1.0870  2.0092  0.3346
11398SOL    HW235636   2.000   1.307   1.581  1.1339 -1.3380 -0.3913
11399SOL     OW35637   6.401   5.211   8.066 -0.2243  0.0625 -0.2736
11399SOL    HW135638   6.340   5.285   8.069  0.4276  0.5879  0.3785
11399SOL    HW235639   6.451   5.225   7.985 -0.7352 -0.1855 -0.6363
11400SOL     OW35640   3.248   3.377   1.960  0.3439 -0.1367 -0.3388
11400SOL    HW135641   3.217   3.381   2.050  1.2649 -0.8252  0.0251
11400SOL    HW235642   3.342   3.396   1.966  0.5452 -0.8449 -1.0577
11401SOL     OW35643   7.587   4.665   7.770  0.1509 -0.0288 -0.0825
11401SOL    HW135644   7.569   4.572   7.758 -2.3526  0.4767 -0.9926
11401SOL    HW235645   7.585   4.701   7.681 -1.4973  1.2317  0.4100
11402SOL     OW35646   0.749   3.277   5.516  0.5442 -0.2887 -0.6539
11402SOL    HW135647   0.759   3.352   5.457  0.6989 -0.9385 -1.4609
11402SOL    HW235648   0.654   3.260   5.518  0.5077 -0.0759 -0.4612
11403SOL     OW35649   7.144   1.343   4.045 -0.3522 -0.0370  0.2832
11403SOL    HW135650   7.141   1.422   3.990 -0.9497 -0.2480  0.0030
11403SOL    HW235651   7.081   1.361   4.114  0.3959  0.2264  0.9159
11404SOL     OW35652   6.481   3.946   8.528  0.1885  0.0713 -0.2579
11404SOL    HW135653   6.417   4.004   8.570  1.1547  0.1047  1.2306
11404SOL    HW235654   6.473   3.966   8.435 -2.3227 -0.2811 -0.2034
11405SOL     OW35655   0.241   2.672   1.940 -0.0574  0.0287  0.1053
11405SOL    HW135656   0.243   2.660   1.845  1.1114  2.9548 -0.3371
11405SOL    HW235657   0.160   2.721   1.956  0.6178  1.0725  0.3712
11406SOL     OW35658   3.477   5.014   3.757  0.0539  0.3073 -0.1974
11406SOL    HW135659   3.504   4.932   3.717  0.9874  0.3725  0.2690
11406SOL    HW235660   3.548   5.036   3.817 -0.2034  1.4325 -0.2778
11407SOL     OW35661   4.979   4.583   2.941 -0.4325  0.3181 -0.1049
11407SOL    HW135662   4.952   4.675   2.930 -0.5037  0.4091  0.7866
11407SOL    HW235663   5.010   4.577   3.031 -0.8456 -0.6398 -0.0109
11408SOL     OW35664   6.886   3.892   5.268 -0.3791 -0.0039 -0.0605
11408SOL    HW135665   6.803   3.912   5.223 -1.4781 -0.1492  1.8010
11408SOL    HW235666   6.859   3.845   5.347  1.5895 -1.1262 -0.0023
11409SOL     OW35667   4.573   6.291   6.933  0.3887 -0.2376  0.3044
11409SOL    HW135668   4.603   6.381   6.926 -1.6387  0.4749  0.1736
11409SOL    HW235669   4.637   6.241   6.882  1.0812  1.2285 -0.3264
11410SOL     OW35670   4.251   6.931   1.125  0.7383  0.0232  0.0497
11410SOL    HW135671   4.299   6.960   1.202 -0.5322  2.1855  0.1363
11410SOL    HW235672   4.161   6.960   1.141  0.3847  0.2907 -2.0953
11411SOL     OW35673   2.514   3.488   6.846  0.0084  0.5828 -0.3346
11411SOL    HW135674   2.601   3.484   6.806 -0.8284 -0.7706 -2.1706
11411SOL    HW235675   2.498   3.399   6.878 -1.3040  0.3900 -1.4446
11412SOL     OW35676   6.194   0.298   1.703 -0.4633 -0.8235  0.3623
11412SOL    HW135677   6.226   0.289   1.613  0.2173  1.0469  0.3717
11412SOL    HW235678   6.100   0.278   1.697 -0.6580  0.3063 -0.9860
11413SOL     OW35679   4.826   6.845   9.910  0.3956  0.2114 -0.0204
11413SOL    HW135680   4.761   6.916   9.917  0.8229  0.5929  0.0885
11413SOL    HW235681   4.797   6.781   9.974 -1.2469 -0.7377 -1.6099
11414SOL     OW35682   3.114   4.505   2.063 -0.0042  0.0707  0.5115
11414SOL    HW135683   3.094   4.519   2.156  1.6981  0.9379  0.7928
11414SOL    HW235684   3.129   4.411   2.056 -0.1641 -0.0048  1.1049
11415SOL     OW35685   1.630   0.523   1.237 -0.1514 -0.2136  0.0877
11415SOL    HW135686   1.696   0.493   1.299 -0.9657 -2.5413 -0.0806
11415SOL    HW235687   1.667   0.502   1.151  0.1499  1.2778 -0.1889
11416SOL     OW35688   1.699   0.294   4.884 -0.1380 -0.3293  0.1087
11416SOL    HW135689   1.767   0.247   4.932  0.9892  0.5741 -0.5644
11416SOL    HW235690   1.725   0.386   4.890 -0.8081 -0.0589 -0.9188
11417SOL     OW35691   2.006   0.761   1.931  0.1641 -0.7676  0.0964
11417SOL    HW135692   1.958   0.788   2.010  0.8751 -0.0784  0.3101
11417SOL    HW235693   2.097   0.753   1.960  0.1974 -2.0007 -0.3172
11418SOL     OW35694   5.780   6.091   2.427  0.0390  0.3443  0.0890
11418SOL    HW135695   5.754   6.173   2.469  2.1537  0.9167  0.3922
11418SOL    HW235696   5.803   6.117   2.337  2.6599  0.5448  0.7316
11419SOL     OW35697   3.542   3.274   4.378  0.4527  0.1009 -0.4187
11419SOL    HW135698   3.635   3.293   4.377  0.4644  0.0405 -0.8764
11419SOL    HW235699   3.520   3.259   4.286 -0.1450  0.7776 -0.3907
11420SOL     OW35700   7.565   7.059   7.246 -0.6614  0.3911  0.6083
11420SOL    HW135701   7.541   7.116   7.172  0.2125  0.1611  0.1392
11420SOL    HW235702   7.588   7.120   7.316 -1.2623  0.6105  0.6306
11421SOL     OW35703   6.882   6.303   2.172  0.1065 -0.6953 -0.1724
11421SOL    HW135704   6.928   6.386   2.181 -1.1702  0.2919 -2.0013
11421SOL    HW235705   6.924   6.260   2.098 -1.0546 -0.3279 -1.0832
11422SOL     OW35706   1.842   2.004   4.289 -0.8304 -0.4449 -0.0084
11422SOL    HW135707   1.869   2.058   4.215 -2.5796 -0.9618 -1.0898
11422SOL    HW235708   1.914   1.941   4.300 -0.0628  0.3152 -0.5674
11423SOL     OW35709   2.322   1.797  10.840  0.8724 -1.0402  0.2310
11423SOL    HW135710   2.249   1.764  10.892  0.0135 -0.3191 -0.4883
11423SOL    HW235711   2.284   1.867  10.787  2.2961  0.0622  0.5879
11424SOL     OW35712   4.045   7.424   6.692 -0.0266 -0.1501  0.0466
11424SOL    HW135713   3.959   7.384   6.706 -0.4211  0.2601 -1.0935
11424SOL    HW235714   4.065   7.407   6.600  0.2430  1.3896 -0.2014
11425SOL     OW35715   3.845   0.333  10.529 -0.0779 -0.2588  0.8514
11425SOL    HW135716   3.777   0.348  10.464 -1.0780 -1.2237  1.6435
11425SOL    HW235717   3.927   0.335  10.479 -0.5752  1.9176  0.0423
11426SOL     OW35718   7.729   5.418   4.401 -0.2124 -0.4518  0.7595
11426SOL    HW135719   7.808   5.421   4.346 -0.3053  1.0349  0.6544
11426SOL    HW235720   7.695   5.329   4.390  0.5421 -0.6110 -0.4924
11427SOL     OW35721   3.638   4.642   1.808  0.1768  0.2624  0.1556
11427SOL    HW135722   3.644   4.680   1.720  0.4973 -0.6312 -0.2202
11427SOL    HW235723   3.621   4.549   1.793  2.0373 -0.2759  0.9773
11428SOL     OW35724   4.555   2.840   3.798  0.4462 -0.5368 -0.0428
11428SOL    HW135725   4.640   2.849   3.841  0.2402 -1.2086  0.5040
11428SOL    HW235726   4.563   2.895   3.720  0.7206  0.9244  0.9749
11429SOL     OW35727   4.410   7.777   8.892  0.2678 -0.4749 -0.8915
11429SOL    HW135728   4.492   7.754   8.847  0.4349 -0.1261 -0.7677
11429SOL    HW235729   4.408   7.721   8.969  0.0683 -0.9489 -1.2364
11430SOL     OW35730   0.436   7.011   4.945  0.1593  0.2477  0.0129
11430SOL    HW135731   0.403   7.006   5.035 -0.1322  0.9506 -0.0502
11430SOL    HW235732   0.532   7.007   4.954  0.1394  0.6103  0.3714
11431SOL     OW35733   4.377   2.876   2.220 -0.4948 -0.2152 -0.2554
11431SOL    HW135734   4.331   2.794   2.236 -0.3641  0.2108  2.8174
11431SOL    HW235735   4.429   2.859   2.141 -0.9934 -2.8220 -0.1080
11432SOL     OW35736   3.222   1.954  10.635  0.2674  0.5418  0.2424
11432SOL    HW135737   3.145   1.999  10.600 -0.0791 -0.2946 -0.1018
11432SOL    HW235738   3.294   1.984  10.580 -0.0553  0.2482 -0.3471
11433SOL     OW35739   0.279   6.176  10.702  0.5329 -0.5010 -0.1746
11433SOL    HW135740   0.365   6.150  10.735  0.3794 -0.4326  0.2812
11433SOL    HW235741   0.240   6.095  10.671 -0.1670 -0.9384  1.7472
11434SOL     OW35742   7.232   0.130  11.239  0.5955 -0.4049  0.0428
11434SOL    HW135743   7.162   0.159  11.180  2.2441  2.0730 -0.8782
11434SOL    HW235744   7.188   0.075  11.304 -2.3758  1.8741  0.1433
11435SOL     OW35745   1.535   3.478   5.499 -0.2314 -0.3700  0.4440
11435SOL    HW135746   1.458   3.457   5.447 -0.2953  1.4361 -0.2529
11435SOL    HW235747   1.501   3.510   5.582 -0.3552  1.6126 -0.3016
11436SOL     OW35748   0.001   3.265   4.508 -0.3235  0.2542 -0.1349
11436SOL    HW135749   0.071   3.243   4.447 -1.6738 -1.2059 -1.2229
11436SOL    HW235750  -0.070   3.205   4.486 -1.4692  0.8283  1.7754
11437SOL     OW35751   0.413   4.156   9.521 -0.3271  0.0053 -0.2008
11437SOL    HW135752   0.338   4.215   9.529  1.0109  1.5930  1.7150
11437SOL    HW235753   0.484   4.212   9.489  0.3179 -1.2325 -0.9970
11438SOL     OW35754   4.273   1.277   7.086 -0.1917  0.0444 -0.4776
11438SOL    HW135755   4.283   1.184   7.065  0.6372  0.0660 -0.1953
11438SOL    HW235756   4.325   1.290   7.165 -0.0868  0.8023 -0.6613
11439SOL     OW35757   4.546   3.324  11.119 -0.5276 -0.0177  0.3082
11439SOL    HW135758   4.528   3.332  11.026  0.8681  1.9654  0.1651
11439SOL    HW235759   4.638   3.346  11.128 -0.9379  1.1296  2.2972
11440SOL     OW35760   6.872   5.909   2.792  0.0681  0.9226 -0.5607
11440SOL    HW135761   6.888   5.819   2.821  0.7942  2.1575  3.3579
11440SOL    HW235762   6.800   5.900   2.729  0.6530 -2.4346 -0.9787
11441SOL     OW35763   4.605   5.746   9.328 -0.1864 -0.3187  0.2249
11441SOL    HW135764   4.588   5.730   9.421 -1.1525  1.3529  0.3756
11441SOL    HW235765   4.585   5.839   9.316  3.0575  0.3511 -0.9712
11442SOL     OW35766   4.078   2.340  12.063 -0.4298  0.0568 -0.6291
11442SOL    HW135767   3.998   2.312  12.106 -0.9487  0.0472 -1.5825
11442SOL    HW235768   4.062   2.431  12.038  0.3145  0.4494  0.2212
11443SOL     OW35769   6.472   0.719   4.440 -0.4406 -0.2326  0.1654
11443SOL    HW135770   6.536   0.757   4.379 -0.9792 -0.6608 -0.6879
11443SOL    HW235771   6.518   0.717   4.524 -0.0123  1.2592 -0.0015
11444SOL     OW35772   2.753   0.895   4.249  0.3453 -0.3187 -0.4777
11444SOL    HW135773   2.845   0.893   4.276  0.4240 -0.2754 -0.7324
11444SOL    HW235774   2.749   0.968   4.187  0.0185  0.0330 -0.0429
11445SOL     OW35775   6.116   6.338  11.710 -0.1547 -0.0922  0.3226
11445SOL    HW135776   6.205   6.368  11.689  0.2017 -1.8305 -0.9148
11445SOL    HW235777   6.083   6.303  11.627 -1.2529 -1.2438  1.2185
11446SOL     OW35778   1.426   4.298   7.389  0.7159  0.0321  0.2640
11446SOL    HW135779   1.350   4.341   7.427  1.5176  0.7376  1.1373
11446SOL    HW235780   1.430   4.329   7.299  0.6301  0.9223  0.5567
11447SOL     OW35781   7.890   3.498   6.759  0.2093  0.1686  0.0591
11447SOL    HW135782   7.905   3.458   6.674 -0.1876 -1.0271  0.5247
11447SOL    HW235783   7.940   3.579   6.757  0.7642 -0.1843 -1.0509
11448SOL     OW35784   6.603   5.268  12.190 -0.0344  0.1901  0.1602
11448SOL    HW135785   6.546   5.312  12.252  1.2116 -1.6917  2.8441
11448SOL    HW235786   6.579   5.176  12.196  1.4759 -0.2907 -0.6562
11449SOL     OW35787   4.197   5.704   1.780 -0.0802 -0.4048 -0.6078
11449SOL    HW135788   4.194   5.611   1.801 -2.2249 -0.2219  0.0857
11449SOL    HW235789   4.244   5.708   1.696  2.1216 -1.8397  0.4571
11450SOL     OW35790   7.449   3.518   2.491 -0.1146  0.0783  0.8787
11450SOL    HW135791   7.383   3.491   2.427 -0.6419 -3.7944  2.7482
11450SOL    HW235792   7.533   3.500   2.448 -0.2476  2.1029 -0.3639
11451SOL     OW35793   7.907   3.696   9.356  0.3605  0.1296  0.1842
11451SOL    HW135794   7.994   3.734   9.353  0.7105 -0.6740 -0.2072
11451SOL    HW235795   7.858   3.741   9.287  0.1290  1.3377  1.1020
11452SOL     OW35796   5.580   3.194  11.122 -0.1789  0.1634 -0.3423
11452SOL    HW135797   5.559   3.285  11.141  1.0589  0.6151 -1.0414
11452SOL    HW235798   5.548   3.180  11.032 -1.7370 -0.5670  0.2844
11453SOL     OW35799   1.385   3.596   7.692 -0.4969  0.5901  0.9855
11453SOL    HW135800   1.313   3.628   7.746  1.0225  2.0474  2.2842
11453SOL    HW235801   1.435   3.539   7.750 -0.7965 -0.7439 -0.0224
11454SOL     OW35802   0.262   1.821  10.563 -0.3868 -0.6923 -0.1071
11454SOL    HW135803   0.331   1.866  10.612  2.1383 -1.1247 -2.9368
11454SOL    HW235804   0.289   1.729  10.563 -1.8860 -1.1472  0.1055
11455SOL     OW35805   0.690   6.096   4.973 -0.5789 -0.3828 -0.0200
11455SOL    HW135806   0.786   6.099   4.971 -0.5945  0.0177 -1.3190
11455SOL    HW235807   0.664   6.184   5.002 -0.5542 -0.5763  0.5957
11456SOL     OW35808   2.426   5.889  10.368  0.2549  0.3816  0.3472
11456SOL    HW135809   2.431   5.825  10.297 -2.6555 -0.1933  0.5323
11456SOL    HW235810   2.379   5.963  10.330 -1.1158  0.1702  1.5189
11457SOL     OW35811   5.457   7.007   5.971  0.0137  0.1711  0.3712
11457SOL    HW135812   5.525   6.987   5.906  0.5746 -0.1553  1.0548
11457SOL    HW235813   5.412   6.923   5.984  0.2727  0.1032  0.8306
11458SOL     OW35814   5.533   2.821   1.532  0.0419  0.4181 -0.3704
11458SOL    HW135815   5.517   2.787   1.444  0.0151 -2.0859  0.5276
11458SOL    HW235816   5.541   2.743   1.587 -1.8067  1.8938  2.2165
11459SOL     OW35817   3.493   2.517   5.200 -0.4408  0.0916 -0.3393
11459SOL    HW135818   3.495   2.518   5.104 -1.3075 -1.2307 -0.3956
11459SOL    HW235819   3.413   2.564   5.223  0.2424  1.2275 -0.2088
11460SOL     OW35820   1.903   5.368  10.701  0.0756 -0.0386  0.0173
11460SOL    HW135821   1.848   5.313  10.758 -0.4258  1.9213  1.5402
11460SOL    HW235822   1.852   5.448  10.689  0.3639 -0.1857 -2.9234
11461SOL     OW35823   3.431   5.583   4.149 -0.1463  0.3125 -0.2192
11461SOL    HW135824   3.364   5.630   4.100  1.4715  2.2558 -0.7198
11461SOL    HW235825   3.511   5.634   4.135  0.4964  0.9590  4.3826
11462SOL     OW35826   4.799   4.525   1.943  0.1157  0.6542  0.1251
11462SOL    HW135827   4.833   4.436   1.954 -0.0886  0.6407  0.6465
11462SOL    HW235828   4.844   4.558   1.865 -0.1723 -0.0813 -0.3608
11463SOL     OW35829   0.866   0.058   8.978  0.2645 -0.4579 -0.3520
11463SOL    HW135830   0.860   0.106   9.060 -0.6770  0.6571 -1.0524
11463SOL    HW235831   0.782   0.012   8.970  0.2215 -0.3037 -0.8436
11464SOL     OW35832   4.823   5.604   5.476  0.5941 -0.5554 -0.7724
11464SOL    HW135833   4.829   5.518   5.517 -0.7801  0.2532  1.2970
11464SOL    HW235834   4.868   5.663   5.537 -0.2744  0.5045 -1.1253
11465SOL     OW35835   6.579   1.929   8.333  0.0184  0.2692  0.5408
11465SOL    HW135836   6.483   1.928   8.336 -0.0895  0.5977 -1.3111
11465SOL    HW235837   6.606   1.914   8.423 -1.7762  0.2344  1.1199
11466SOL     OW35838   2.124   5.475   6.355  0.1809 -0.4258  0.3190
11466SOL    HW135839   2.198   5.486   6.415 -0.5554 -0.4092  1.2643
11466SOL    HW235840   2.163   5.470   6.268  1.1617  1.3390  0.6215
11467SOL     OW35841   2.906   7.483   5.873 -1.0261 -0.4393  0.3907
11467SOL    HW135842   2.858   7.547   5.926  0.5397  1.6834 -0.6291
11467SOL    HW235843   2.887   7.507   5.782 -0.2131 -1.2692 -0.0199
11468SOL     OW35844   3.969   5.320   3.155  0.0902 -0.2150 -0.3234
11468SOL    HW135845   3.990   5.401   3.108  2.7768 -0.4972  0.2604
11468SOL    HW235846   3.874   5.322   3.163  0.0742  3.3571  0.4587
11469SOL     OW35847   1.298   0.090   8.150  0.2515 -0.3089 -0.1931
11469SOL    HW135848   1.381   0.101   8.196 -0.4957  2.1427  0.7597
11469SOL    HW235849   1.301   0.155   8.080 -0.0553 -1.6453 -1.5001
11470SOL     OW35850   1.678   4.141   0.706 -0.2701 -0.2946 -0.1688
11470SOL    HW135851   1.710   4.153   0.795 -0.8378  1.0246 -0.1290
11470SOL    HW235852   1.749   4.095   0.661  0.7807  0.6653  0.4802
11471SOL     OW35853   5.512   5.077   8.103 -0.4447  0.2182 -0.1020
11471SOL    HW135854   5.589   5.095   8.049  0.3904  0.9245  1.2821
11471SOL    HW235855   5.438   5.095   8.045  0.4130 -0.4779 -1.4585
11472SOL     OW35856   4.698   6.448   2.122  0.4421 -0.2462 -0.0755
11472SOL    HW135857   4.707   6.536   2.086 -0.6883 -0.5359 -1.1672
11472SOL    HW235858   4.774   6.437   2.178  0.7039  1.3543 -0.0594
11473SOL     OW35859   3.489   7.286   6.660 -0.5937  0.7820 -0.3849
11473SOL    HW135860   3.456   7.360   6.711 -2.6440 -0.5125  0.2738
11473SOL    HW235861   3.425   7.217   6.674  0.0908 -0.4383 -2.7540
11474SOL     OW35862   1.575   7.838  12.188 -0.2745  0.1241  0.8021
11474SOL    HW135863   1.527   7.802  12.263 -1.7296 -0.3579 -0.3194
11474SOL    HW235864   1.604   7.924  12.218 -1.0481  0.0459  1.8405
11475SOL     OW35865   0.444   5.177  10.509 -0.2704  0.2869 -0.3965
11475SOL    HW135866   0.536   5.189  10.534 -0.0425 -1.4841 -0.2289
11475SOL    HW235867   0.411   5.111  10.570 -1.1442 -0.4107 -1.5672
11476SOL     OW35868   2.318   4.334   6.888  0.0533 -0.0707  0.3079
11476SOL    HW135869   2.293   4.245   6.910  0.4120 -0.3397 -0.3509
11476SOL    HW235870   2.260   4.359   6.817  1.3117 -0.5449 -0.9335
11477SOL     OW35871   1.368   1.248   1.403 -0.5329 -0.0759  0.2663
11477SOL    HW135872   1.353   1.212   1.490 -0.5522  0.6913  0.5911
11477SOL    HW235873   1.354   1.342   1.413 -0.1850  0.0677 -0.4854
11478SOL     OW35874   6.503   5.263   9.413 -0.5909  0.2876  0.0905
11478SOL    HW135875   6.439   5.204   9.373 -0.7806  2.1058 -2.6193
11478SOL    HW235876   6.586   5.242   9.369 -0.5990  1.7241 -0.7023
11479SOL     OW35877   3.455   0.567   8.445  0.7735 -0.1533 -0.1578
11479SOL    HW135878   3.408   0.547   8.365  1.5324  1.0316 -0.9249
11479SOL    HW235879   3.396   0.538   8.515 -0.8714  0.8114 -1.0808
11480SOL     OW35880   1.074   6.667   5.109 -0.3301  0.6296  0.0524
11480SOL    HW135881   1.094   6.761   5.114  1.3664  0.2752  0.3705
11480SOL    HW235882   1.105   6.631   5.192 -3.7207  0.1973  1.3027
11481SOL     OW35883   2.452   4.433   0.197 -0.3397 -0.3164 -0.6653
11481SOL    HW135884   2.538   4.467   0.175 -0.2017 -1.6995 -2.4928
11481SOL    HW235885   2.420   4.394   0.116 -3.5317  1.7999 -0.5861
11482SOL     OW35886   1.324   0.467  10.389 -0.2961  0.7218  0.1750
11482SOL    HW135887   1.406   0.425  10.363 -1.2053 -1.1014  0.0530
11482SOL    HW235888   1.286   0.408  10.454 -2.5723  0.2624 -1.4298
11483SOL     OW35889   2.861   1.857   4.607  0.2390 -0.3562 -0.8680
11483SOL    HW135890   2.923   1.929   4.599 -1.8105  1.5544 -0.5558
11483SOL    HW235891   2.835   1.836   4.517 -1.6560  1.6794 -0.8663
11484SOL     OW35892   0.507   3.816  11.334 -0.3661  0.2473  0.2037
11484SOL    HW135893   0.440   3.882  11.312  0.0178  0.5897  0.0500
11484SOL    HW235894   0.510   3.760  11.256  0.5165  1.0659 -0.3816
11485SOL     OW35895   4.097   6.779   3.423 -0.2323  0.2669  0.3420
11485SOL    HW135896   4.083   6.843   3.353  0.3621  0.6232  0.5374
11485SOL    HW235897   4.190   6.756   3.415 -0.4059 -0.4597  0.3701
11486SOL     OW35898   2.322   6.956  10.935  0.0339  0.3916  0.3444
11486SOL    HW135899   2.335   6.900  10.858 -3.2436  1.2248 -0.9953
11486SOL    HW235900   2.279   6.899  10.999 -0.6893  0.6423  0.0853
11487SOL     OW35901   3.674   6.834   9.789 -0.1060 -0.0483 -0.3002
11487SOL    HW135902   3.729   6.803   9.861  0.5646  0.6344 -0.4986
11487SOL    HW235903   3.642   6.754   9.747 -0.3851 -0.4499  0.6573
11488SOL     OW35904   4.927   1.171   3.706 -0.2667 -0.7563 -0.5183
11488SOL    HW135905   4.849   1.202   3.752  0.8643  0.2225  0.8559
11488SOL    HW235906   4.950   1.089   3.751  0.0533 -0.5189 -0.2421
11489SOL     OW35907   7.594   5.049   8.995  0.0517 -0.1456  0.0258
11489SOL    HW135908   7.676   5.010   8.965  0.1122 -0.2308  0.3048
11489SOL    HW235909   7.528   5.015   8.935 -0.2577 -2.4376  1.5549
11490SOL     OW35910   1.371   7.344   2.744  0.1333  0.2844 -0.6404
11490SOL    HW135911   1.346   7.260   2.706  0.3616  0.9413 -2.3060
11490SOL    HW235912   1.459   7.360   2.712  1.2533 -0.1437  1.9972
11491SOL     OW35913   7.390   4.469   3.824 -0.2619 -0.0879 -0.2321
11491SOL    HW135914   7.376   4.503   3.735 -2.3013 -0.1017  0.0371
11491SOL    HW235915   7.474   4.507   3.851  0.6014 -0.3705 -2.2714
11492SOL     OW35916   5.827   0.350   5.170  0.1946  0.3927 -0.2224
11492SOL    HW135917   5.866   0.347   5.083  0.1407  0.5456 -0.2524
11492SOL    HW235918   5.883   0.411   5.219  1.0223 -0.7093  0.2452
11493SOL     OW35919   4.286   3.700  11.940  0.0475  0.4246 -0.8145
11493SOL    HW135920   4.332   3.740  11.867  0.3250 -0.2751 -1.0342
11493SOL    HW235921   4.355   3.676  12.002 -0.3114  2.9723  0.7342
11494SOL     OW35922   3.184   0.984   5.185 -0.2932 -0.2984  0.4864
11494SOL    HW135923   3.090   0.982   5.203 -0.2237 -0.5917  0.8297
11494SOL    HW235924   3.218   1.052   5.244 -0.5641  1.1688 -0.9999
11495SOL     OW35925   2.277   6.203   3.621  0.5294 -0.3693  0.1951
11495SOL    HW135926   2.341   6.167   3.683 -0.3468 -0.7256  0.9141
11495SOL    HW235927   2.228   6.126   3.591  0.1529 -0.0455 -0.0214
11496SOL     OW35928   7.690   1.827   5.086  0.2265 -0.6521  0.2382
11496SOL    HW135929   7.719   1.803   5.174  5.3495 -0.3054 -0.9968
11496SOL    HW235930   7.685   1.923   5.088 -1.2716 -0.7180  0.4857
11497SOL     OW35931   0.753   5.570  10.164  0.0404 -0.3088  0.1039
11497SOL    HW135932   0.709   5.495  10.124 -0.4465 -1.4969  2.6602
11497SOL    HW235933   0.846   5.545  10.166  0.2449  0.2607 -1.2414
11498SOL     OW35934   4.398   7.164  11.889  0.0703 -0.2236 -0.7266
11498SOL    HW135935   4.416   7.165  11.983 -0.0433  0.9109 -0.7084
11498SOL    HW235936   4.485   7.157  11.849  0.1644 -0.1157 -0.5453
11499SOL     OW35937   2.130   7.711   1.124  0.4749 -0.5958 -0.0658
11499SOL    HW135938   2.177   7.728   1.043 -0.6192 -0.3579 -0.6645
11499SOL    HW235939   2.166   7.774   1.187  2.0864 -1.4886 -0.0421
11500SOL     OW35940   5.394   0.974   3.563 -0.3799 -0.5240  0.0248
11500SOL    HW135941   5.313   1.023   3.545 -1.7056 -2.0679  1.4279
11500SOL    HW235942   5.453   1.039   3.601 -1.8393  0.1760  1.2009
11501SOL     OW35943   5.204   7.701   8.831 -0.0615 -0.5595 -0.1849
11501SOL    HW135944   5.180   7.779   8.882  1.4412  0.0902 -0.4191
11501SOL    HW235945   5.127   7.683   8.777 -0.9285 -0.0462  0.8412
11502SOL     OW35946   7.544   3.785  10.215  0.3031 -0.0598 -0.4030
11502SOL    HW135947   7.565   3.788  10.122 -0.8089  0.4075 -0.6545
11502SOL    HW235948   7.527   3.876  10.239 -2.1474 -0.4396 -0.4342
11503SOL     OW35949   4.174   7.273  11.735 -0.1951  0.5998  0.1794
11503SOL    HW135950   4.161   7.367  11.723 -1.4019  0.5290  0.8407
11503SOL    HW235951   4.262   7.266  11.772  0.7890  1.2946 -1.8556
11504SOL     OW35952   1.539   3.825   5.425  0.0292  0.0940  0.6881
11504SOL    HW135953   1.559   3.909   5.465 -1.8367  0.5596  0.7378
11504SOL    HW235954   1.445   3.814   5.437 -0.1282 -1.0473 -1.1086
11505SOL     OW35955   2.256   2.111   4.068  0.0868 -0.4009 -0.2203
11505SOL    HW135956   2.258   2.165   4.147  1.5652 -1.7645  0.7357
11505SOL    HW235957   2.255   2.173   3.996  0.6192  0.8966  0.8597
11506SOL     OW35958   2.795   5.057   1.058 -0.3949  0.0834  0.5046
11506SOL    HW135959   2.805   5.041   1.152  0.5603 -0.0498  0.3913
11506SOL    HW235960   2.874   5.106   1.034 -2.1017  3.0474  0.3964
11507SOL     OW35961   3.233   6.150   9.112  0.2405  0.2527 -0.7966
11507SOL    HW135962   3.282   6.087   9.164  1.0247  1.0755 -0.5108
11507SOL    HW235963   3.162   6.100   9.073  1.3614 -1.0089 -1.2944
11508SOL     OW35964   6.255   3.264  12.061 -0.2045  0.3667  0.6395
11508SOL    HW135965   6.163   3.237  12.060  0.1315 -0.8253 -1.0615
11508SOL    HW235966   6.255   3.347  12.013 -0.2843 -0.1156 -0.2233
11509SOL     OW35967   0.546   1.711   5.105  0.2003 -1.0696  0.3405
11509SOL    HW135968   0.558   1.706   5.200  0.0166  0.4795  0.4745
11509SOL    HW235969   0.527   1.622   5.078 -0.9515 -1.3335  1.9269
11510SOL     OW35970   2.769   0.688   8.766 -0.1229 -0.3398  0.2481
11510SOL    HW135971   2.860   0.701   8.793  0.1075 -0.0922 -0.6186
11510SOL    HW235972   2.720   0.756   8.813  0.1296 -0.4945  0.7408
11511SOL     OW35973   4.729   5.093   2.992 -0.6446  0.3594  0.3481
11511SOL    HW135974   4.645   5.131   3.017 -0.8898  0.5358 -0.7133
11511SOL    HW235975   4.777   5.165   2.950 -0.9554 -0.3487 -1.3125
11512SOL     OW35976   4.041   5.457   7.535 -0.1939  0.4819 -0.3148
11512SOL    HW135977   3.947   5.442   7.528 -0.0591  0.6000 -3.7038
11512SOL    HW235978   4.069   5.481   7.447  3.1540 -0.1330  0.4337
11513SOL     OW35979   6.884   0.752  10.889  0.6384  0.1687 -0.6334
11513SOL    HW135980   6.820   0.765  10.959  0.8067 -2.5883  0.1359
11513SOL    HW235981   6.837   0.702  10.822  2.2147 -3.2406  0.5918
11514SOL     OW35982   0.672   0.659   8.651  0.4632 -0.1554  0.1049
11514SOL    HW135983   0.622   0.594   8.701 -1.9733 -0.1894 -2.2135
11514SOL    HW235984   0.706   0.610   8.576 -0.9777  1.0680 -1.4048
11515SOL     OW35985   2.037   5.660   7.844  0.3782  0.3613  0.0451
11515SOL    HW135986   1.942   5.659   7.853  0.3819 -0.3284  0.0996
11515SOL    HW235987   2.066   5.733   7.899 -0.0768  0.1743  0.5367
11516SOL     OW35988   3.729   6.934  11.586 -0.1954  0.3374 -0.4253
11516SOL    HW135989   3.679   6.899  11.660  0.2751 -1.2259 -0.8008
11516SOL    HW235990   3.819   6.910  11.605  0.1821  1.5570 -0.6215
11517SOL     OW35991   1.144   7.612   7.080  0.0785 -0.7867  0.0621
11517SOL    HW135992   1.198   7.535   7.061  0.6513 -0.4028  0.1168
11517SOL    HW235993   1.145   7.662   6.999 -2.2644 -1.9795 -0.7958
11518SOL     OW35994   2.111   5.388   6.777 -0.1874  0.2922  0.0749
11518SOL    HW135995   2.176   5.329   6.817  2.9093  1.8759 -2.1963
11518SOL    HW235996   2.080   5.340   6.701 -1.0238 -0.0743  0.6295
11519SOL     OW35997   6.567   4.901   7.719 -0.0108 -0.2782  0.3633
11519SOL    HW135998   6.575   4.869   7.809  1.3711 -0.3043  0.2564
11519SOL    HW235999   6.657   4.901   7.686 -0.5466 -0.6708 -1.1669
11520SOL     OW36000   6.510   0.936   0.271 -0.9920  0.1644 -0.0898
11520SOL    HW136001   6.502   0.842   0.257 -0.1445  0.0653  0.0682
11520SOL    HW236002   6.420   0.965   0.284 -1.2663 -0.6163 -0.1638
11521SOL     OW36003   2.547   1.407   2.922 -0.1884  0.3222  0.3107
11521SOL    HW136004   2.581   1.319   2.941 -0.3489 -0.3114 -2.0448
11521SOL    HW236005   2.609   1.444   2.860 -1.2668  1.0342 -0.3729
11522SOL     OW36006   3.008   1.348  10.380  0.0475 -0.2941  0.5376
11522SOL    HW136007   2.979   1.372  10.468 -0.1771 -2.6177  1.1686
11522SOL    HW236008   2.930   1.356  10.326  0.0727  0.6855  0.6190
11523SOL     OW36009   3.747   7.150   8.238  0.0838  0.0719  0.3872
11523SOL    HW136010   3.687   7.128   8.310  1.8754 -0.2176  1.8647
11523SOL    HW236011   3.807   7.214   8.275  0.8783  0.1401 -0.9545
11524SOL     OW36012   3.503   6.138  11.136  0.1098  0.0928  0.0237
11524SOL    HW136013   3.477   6.116  11.225  0.9644  0.9090  0.4987
11524SOL    HW236014   3.431   6.108  11.081 -0.3129 -0.6487  0.9618
11525SOL     OW36015   3.130   3.708   1.514 -0.0505  0.6472 -0.4034
11525SOL    HW136016   3.094   3.777   1.458  1.0351  0.9282 -0.7881
11525SOL    HW236017   3.063   3.694   1.581 -2.2739 -1.0453 -2.7857
11526SOL     OW36018   7.076   0.691   1.979  0.4611 -0.2562 -0.3379
11526SOL    HW136019   7.068   0.786   1.991  0.1081 -0.4281  0.9493
11526SOL    HW236020   7.107   0.680   1.889 -1.0137  1.0297 -1.0566
11527SOL     OW36021   7.695   4.568   2.127  0.1392 -0.3395  0.1042
11527SOL    HW136022   7.671   4.502   2.191  1.0345 -0.0969  0.7143
11527SOL    HW236023   7.788   4.583   2.142  0.3891 -0.3303 -1.3116
11528SOL     OW36024   2.089   2.029  12.020  0.1562 -0.8037  0.7078
11528SOL    HW136025   2.037   1.953  11.994  0.2520 -0.4405 -0.6727
11528SOL    HW236026   2.038   2.104  11.989  0.6240 -0.3642  0.9798
11529SOL     OW36027   4.560   1.366   1.736 -0.0705 -0.5120 -0.4681
11529SOL    HW136028   4.484   1.336   1.686  0.6148 -2.6387 -0.3459
11529SOL    HW236029   4.605   1.427   1.677 -0.5073 -1.2131 -1.5568
11530SOL     OW36030   0.527   4.867   9.213 -0.2588 -0.6234  0.0066
11530SOL    HW136031   0.492   4.783   9.183  0.1320 -1.7463  2.4381
11530SOL    HW236032   0.600   4.885   9.154  0.2386 -2.4829 -0.0234
11531SOL     OW36033   7.619   5.741   8.966 -0.1632 -0.3940  0.0887
11531SOL    HW136034   7.682   5.671   8.979  0.1606  0.2961  2.8898
11531SOL    HW236035   7.618   5.789   9.049 -3.8967  0.0177 -0.0078
11532SOL     OW36036   7.174   5.543   4.175 -0.4349  0.9531 -0.5136
11532SOL    HW136037   7.267   5.562   4.162 -0.3785  0.7752 -0.3614
11532SOL    HW236038   7.157   5.467   4.119 -0.4678  0.9293 -0.4714
11533SOL     OW36039   3.277   1.788   4.654 -0.4478  0.4668 -0.3290
11533SOL    HW136040   3.350   1.728   4.639  0.3451  1.1798  0.5454
11533SOL    HW236041   3.211   1.762   4.590  0.8069  0.2055 -1.5565
11534SOL     OW36042   2.228   1.326   7.538  0.7719  0.1689 -0.4017
11534SOL    HW136043   2.165   1.255   7.523 -0.2002  0.6301  1.2646
11534SOL    HW236044   2.193   1.400   7.489 -0.1090  0.4676  0.6386
11535SOL     OW36045   0.529   3.123   3.610  0.2142 -0.6088  0.5803
11535SOL    HW136046   0.584   3.090   3.538 -1.8478 -2.4445 -0.2490
11535SOL    HW236047   0.531   3.053   3.675  1.0896  0.5384  1.8533
11536SOL     OW36048   2.839   3.647  10.640 -0.5606 -0.1017  0.3082
11536SOL    HW136049   2.773   3.614  10.579 -1.7917 -1.6631  2.3660
11536SOL    HW236050   2.904   3.577  10.646 -1.7108 -1.0842  2.5312
11537SOL     OW36051   1.514   5.292   2.158  0.4793 -0.2645 -0.0895
11537SOL    HW136052   1.493   5.316   2.248 -0.2164  0.5740 -0.4581
11537SOL    HW236053   1.496   5.198   2.154 -1.3293  0.0198  0.1847
11538SOL     OW36054   6.517   1.092   0.778 -0.1780  0.2204  0.0041
11538SOL    HW136055   6.530   1.035   0.702 -1.2214  1.3573 -1.0621
11538SOL    HW236056   6.479   1.034   0.844  0.4418 -0.7230 -0.4335
11539SOL     OW36057   7.178   3.626   2.599 -0.3964  0.7261  0.4934
11539SOL    HW136058   7.226   3.565   2.543 -1.4317  1.3674 -1.1329
11539SOL    HW236059   7.177   3.582   2.685  0.7390 -0.5287 -0.0840
11540SOL     OW36060   7.272   6.821   7.059 -0.3176  0.3589 -0.4501
11540SOL    HW136061   7.213   6.820   6.984 -1.0825  1.1616  0.1201
11540SOL    HW236062   7.220   6.857   7.130  0.6001  0.2512  0.3018
11541SOL     OW36063   0.737   6.884   1.653  0.4548  0.3785 -0.2187
11541SOL    HW136064   0.786   6.870   1.733 -1.2594  0.0031  0.8237
11541SOL    HW236065   0.666   6.944   1.678 -0.3922 -0.1037 -1.3199
11542SOL     OW36066   6.555   2.053   7.342 -0.1166 -0.0264 -0.0594
11542SOL    HW136067   6.618   2.111   7.299 -3.1875  4.0061  0.2620
11542SOL    HW236068   6.570   2.067   7.436 -0.9211  0.2920  0.0264
11543SOL     OW36069   5.249   3.354   9.810 -0.1339 -0.5296 -0.5277
11543SOL    HW136070   5.226   3.445   9.829  0.2614  0.0003 -2.4346
11543SOL    HW236071   5.200   3.333   9.731  0.1480 -1.8398 -0.3691
11544SOL     OW36072   2.218   5.809   7.254 -0.3451  0.1787  0.0994
11544SOL    HW136073   2.176   5.894   7.238 -0.9744  0.2277  1.7773
11544SOL    HW236074   2.163   5.768   7.321  0.6384 -1.0313  0.1841
11545SOL     OW36075   3.537   3.054   2.337  0.3292  0.0813 -0.0178
11545SOL    HW136076   3.547   3.115   2.264 -0.2136 -0.4921 -0.5848
11545SOL    HW236077   3.489   2.979   2.300 -1.8614  0.6721  1.4278
11546SOL     OW36078   2.498   7.531   5.811 -0.3725 -0.6925  0.0693
11546SOL    HW136079   2.455   7.452   5.842 -0.9348 -0.3159  0.2583
11546SOL    HW236080   2.570   7.499   5.756  0.8723 -1.4148  1.9763
11547SOL     OW36081   5.817   1.413   1.313 -0.0866 -0.4618 -0.1913
11547SOL    HW136082   5.761   1.404   1.390  0.1175 -0.0837  0.0063
11547SOL    HW236083   5.780   1.354   1.248  0.5405 -1.8148  0.6471
11548SOL     OW36084   4.141   4.269   9.963  0.2442  0.4649 -0.2580
11548SOL    HW136085   4.147   4.190   9.909  0.5441  0.6050 -0.4309
11548SOL    HW236086   4.048   4.277   9.984  0.2381 -0.0332 -0.0908
11549SOL     OW36087   7.778   0.559   8.694  0.0291  1.1685  0.0738
11549SOL    HW136088   7.735   0.608   8.623  0.7720  1.6379 -0.0603
11549SOL    HW236089   7.742   0.471   8.687 -0.0258  1.2498 -0.7937
11550SOL     OW36090   2.587   2.104   5.089 -0.2733 -0.1909  0.3075
11550SOL    HW136091   2.507   2.064   5.123 -1.3997  0.9819 -0.8782
11550SOL    HW236092   2.596   2.187   5.137 -0.6960  0.4607 -0.7162
11551SOL     OW36093   0.032   0.081   4.695  0.0989  0.0007 -0.0119
11551SOL    HW136094   0.059   0.169   4.669 -1.0876  0.5796  0.6227
11551SOL    HW236095  -0.002   0.041   4.614 -2.3652  1.3188  0.2864
11552SOL     OW36096   1.699   0.396   8.874  0.4535  0.2550  0.1300
11552SOL    HW136097   1.636   0.445   8.820  0.4531 -0.6809 -0.7363
11552SOL    HW236098   1.784   0.419   8.838  1.1166  4.3442  3.4620
11553SOL     OW36099   5.761   1.661   2.480  0.3367  0.4672  0.4970
11553SOL    HW136100   5.768   1.578   2.526  1.1853  0.9062  1.1714
11553SOL    HW236101   5.668   1.667   2.457  0.4485 -1.1754 -0.5559
11554SOL     OW36102   7.736   6.058  10.315  0.0773  0.3623  0.2821
11554SOL    HW136103   7.796   6.080  10.386 -0.0430 -1.8156  1.1603
11554SOL    HW236104   7.793   6.042  10.240  0.5956 -1.0745  0.9434
11555SOL     OW36105   0.161   3.284   5.007  0.1028 -0.2833  0.3358
11555SOL    HW136106   0.172   3.241   4.923  0.1853  0.3291  0.0297
11555SOL    HW236107   0.200   3.224   5.070 -0.2902 -0.9168 -0.0121
11556SOL     OW36108   4.151   5.819   6.194 -0.4071  0.3172  0.2216
11556SOL    HW136109   4.153   5.907   6.231 -0.8949  0.2101  0.5015
11556SOL    HW236110   4.243   5.797   6.180 -0.3308  1.3701 -1.0396
11557SOL     OW36111   3.632   2.540  11.432 -0.1071  0.0793 -0.0810
11557SOL    HW136112   3.638   2.532  11.527 -2.2880  0.0165  0.0967
11557SOL    HW236113   3.599   2.455  11.402 -1.0076  0.6179 -0.6881
11558SOL     OW36114   5.333   2.107  10.087  0.3606 -0.2084  0.3565
11558SOL    HW136115   5.367   2.179  10.034  0.2209 -0.1255  0.3792
11558SOL    HW236116   5.269   2.148  10.145 -1.6034 -0.6853 -1.3346
11559SOL     OW36117   2.429   7.824   2.000  0.2125 -0.2327 -0.5031
11559SOL    HW136118   2.480   7.905   1.993  1.4691 -0.7969  1.3558
11559SOL    HW236119   2.408   7.801   1.909  2.0518  0.8156 -1.2467
11560SOL     OW36120   4.375   0.805   9.096  0.2756  0.2843  0.1306
11560SOL    HW136121   4.385   0.823   9.003  0.9830 -0.7955 -0.0266
11560SOL    HW236122   4.436   0.865   9.139  2.4657 -1.4363 -0.3613
11561SOL     OW36123   7.852   7.086  10.818  0.2609 -0.3396  0.4811
11561SOL    HW136124   7.796   7.009  10.805 -0.0343  0.0043 -0.3485
11561SOL    HW236125   7.911   7.085  10.743 -1.5076  1.7204 -1.0573
11562SOL     OW36126   2.653   0.140   7.690  0.6538 -0.1379  0.8077
11562SOL    HW136127   2.594   0.100   7.626 -0.4410  1.2326  0.9195
11562SOL    HW236128   2.733   0.157   7.640 -0.1435  0.8073 -0.2140
11563SOL     OW36129   3.408   2.036  10.459 -0.0258  0.7603 -0.1836
11563SOL    HW136130   3.496   2.070  10.444  0.9749 -0.8321  1.5947
11563SOL    HW236131   3.353   2.081  10.395  2.1587  1.4042 -1.7038
11564SOL     OW36132   2.003   6.558   0.581 -0.2130 -0.0985  0.4301
11564SOL    HW136133   2.077   6.499   0.571 -0.0437  0.1866 -0.0307
11564SOL    HW236134   1.957   6.553   0.497 -0.1220  0.5206  0.3386
11565SOL     OW36135   3.662   3.644   0.453 -0.3568  0.0256 -0.1059
11565SOL    HW136136   3.708   3.595   0.385  0.6007  0.0702  0.4951
11565SOL    HW236137   3.636   3.578   0.518 -0.4168  0.1114 -0.0406
11566SOL     OW36138   3.660   1.647   2.564  0.0381 -0.1704  0.4087
11566SOL    HW136139   3.714   1.699   2.505  0.2822 -2.1950 -1.2589
11566SOL    HW236140   3.603   1.596   2.506 -0.7146 -1.2082  1.9823
11567SOL     OW36141   6.602   1.381   1.291 -1.1837  0.6094 -0.5666
11567SOL    HW136142   6.619   1.296   1.251 -1.7404  1.5903 -3.0745
11567SOL    HW236143   6.564   1.360   1.376  0.3812 -1.6073 -0.3130
11568SOL     OW36144   4.924   5.157   2.368 -0.5858 -0.4153  0.9281
11568SOL    HW136145   4.868   5.231   2.346 -2.0359 -1.9490 -0.7802
11568SOL    HW236146   5.002   5.197   2.408 -0.7788  2.1143 -1.0168
11569SOL     OW36147   2.375   4.189  12.069  0.3476 -0.3148  0.0760
11569SOL    HW136148   2.338   4.126  12.131 -0.3748  1.1294  1.1591
11569SOL    HW236149   2.430   4.246  12.123  0.6676  0.2287 -0.8100
11570SOL     OW36150   3.828   5.126   8.047 -0.1604 -0.0896  0.1666
11570SOL    HW136151   3.794   5.213   8.068  1.0504  0.4450 -0.0082
11570SOL    HW236152   3.782   5.067   8.106 -2.6892  0.3411 -1.2509
11571SOL     OW36153   3.468   5.668   2.503 -0.0833  0.5303 -0.0267
11571SOL    HW136154   3.464   5.712   2.588  1.9192 -1.0127  0.9453
11571SOL    HW236155   3.405   5.715   2.449 -1.1274  1.8277  2.1798
11572SOL     OW36156   5.000   7.700   9.301  0.4016  0.0685  1.3050
11572SOL    HW136157   4.982   7.637   9.230 -2.9558  0.2274  1.8417
11572SOL    HW236158   5.055   7.652   9.362  1.6348 -0.7797 -0.3936
11573SOL     OW36159   1.423   1.083   0.778  0.3953  0.1676 -0.3860
11573SOL    HW136160   1.418   0.993   0.745  1.2607  0.1429 -0.4727
11573SOL    HW236161   1.333   1.114   0.776  0.1278 -0.6012 -0.6371
11574SOL     OW36162   0.412   0.145   9.043  0.3820 -0.1431 -0.5725
11574SOL    HW136163   0.457   0.113   8.965  0.1801  0.9467 -1.1651
11574SOL    HW236164   0.457   0.103   9.116 -0.4102 -2.3937 -1.3064
11575SOL     OW36165   1.635   6.409   7.430 -0.2401  0.2245  0.3837
11575SOL    HW136166   1.597   6.472   7.491  1.2852 -0.0719  1.7248
11575SOL    HW236167   1.725   6.398   7.460  0.1741 -0.9484 -1.1485
11576SOL     OW36168   1.727   3.525   1.302  1.2278 -0.1468 -0.2017
11576SOL    HW136169   1.646   3.561   1.266  0.4670 -0.8328  0.7908
11576SOL    HW236170   1.715   3.430   1.298  1.3494 -0.2453  1.3430
11577SOL     OW36171   1.012   3.405  10.071 -0.3305 -0.1405 -0.1042
11577SOL    HW136172   1.002   3.500  10.063  1.0353  0.0741  0.6152
11577SOL    HW236173   1.106   3.390  10.072 -0.4612 -1.2480  2.5802
11578SOL     OW36174   5.168   5.052   2.506 -0.0862  0.2644 -0.1307
11578SOL    HW136175   5.109   4.977   2.510 -0.5752  0.6582  0.1556
11578SOL    HW236176   5.235   5.027   2.442 -2.4124  1.0785 -3.1563
11579SOL     OW36177   7.453   5.010   5.647  0.7845 -0.1287  0.5798
11579SOL    HW136178   7.533   4.997   5.597  0.2806  1.7739 -0.8160
11579SOL    HW236179   7.480   5.002   5.739  2.1771 -1.3104  0.1030
11580SOL     OW36180   4.547   7.241   0.342 -0.0331  0.7249  0.5181
11580SOL    HW136181   4.515   7.250   0.432  0.4305  0.5279  0.7060
11580SOL    HW236182   4.584   7.153   0.338 -1.8598 -0.0503 -0.4627
11581SOL     OW36183   4.426   4.869  10.617  0.5345 -0.0819 -0.3291
11581SOL    HW136184   4.377   4.951  10.611  1.2768  0.3312 -0.8100
11581SOL    HW236185   4.481   4.880  10.695  0.9161  0.0328 -0.6148
11582SOL     OW36186   2.987   0.187  10.725  0.1647  0.0868  0.1568
11582SOL    HW136187   2.938   0.178  10.807 -1.0051 -1.9094 -0.6772
11582SOL    HW236188   3.005   0.097  10.698  0.5200  0.6894 -1.7696
11583SOL     OW36189   3.301   0.886   3.487  1.3527  0.2088  0.0830
11583SOL    HW136190   3.334   0.917   3.571  0.6479  2.7635 -0.4981
11583SOL    HW236191   3.291   0.965   3.434 -1.6109 -0.8926 -1.2150
11584SOL     OW36192   2.737   3.296  10.253  0.1316 -0.1339  0.4246
11584SOL    HW136193   2.765   3.361  10.318  1.6537 -0.1605 -0.1669
11584SOL    HW236194   2.656   3.332  10.217 -0.4956  0.1048  1.9850
11585SOL     OW36195   1.589   6.414   4.631 -0.3642  0.4401 -0.1762
11585SOL    HW136196   1.561   6.401   4.540 -1.1136  0.6511  0.0218
11585SOL    HW236197   1.516   6.459   4.673 -0.2889 -0.2257  0.7003
11586SOL     OW36198   2.771   4.368   8.019  0.1983 -0.4131  0.1193
11586SOL    HW136199   2.767   4.383   7.925  0.3488  0.3155  0.2272
11586SOL    HW236200   2.722   4.286   8.032 -0.3895 -0.1661 -0.5070
11587SOL     OW36201   3.811   5.552   8.260 -0.3971 -0.5739  0.5299
11587SOL    HW136202   3.861   5.627   8.228 -1.9892  0.0002 -0.7559
11587SOL    HW236203   3.792   5.573   8.351  1.7896 -0.8999  1.1165
11588SOL     OW36204   3.586   1.069   7.565  0.1388  0.7275 -0.2669
11588SOL    HW136205   3.544   1.151   7.542  2.2088  2.5614  1.9242
11588SOL    HW236206   3.556   1.051   7.654 -0.3427 -1.0179 -0.7303
11589SOL     OW36207   5.100   0.121   7.524 -0.4847 -0.6196 -0.2595
11589SOL    HW136208   5.108   0.192   7.587 -2.3391 -0.3959 -0.2135
11589SOL    HW236209   5.103   0.041   7.577  0.6683 -0.5463 -0.2071
11590SOL     OW36210   6.172   6.490   3.150  0.1976 -0.1239 -0.3279
11590SOL    HW136211   6.212   6.446   3.075  1.1152  1.7808 -1.0354
11590SOL    HW236212   6.207   6.444   3.226 -0.9053 -2.2256 -1.0006
11591SOL     OW36213   1.457   0.301   3.816 -0.4908 -0.1065 -0.2312
11591SOL    HW136214   1.479   0.391   3.842 -1.2485 -0.3666  1.4729
11591SOL    HW236215   1.459   0.251   3.898 -4.3986 -0.7182 -0.3024
11592SOL     OW36216   0.835   3.349   2.348 -0.0068  0.0281  0.2034
11592SOL    HW136217   0.894   3.415   2.384 -0.3872 -0.6558  2.2696
11592SOL    HW236218   0.891   3.288   2.303  0.5825  0.6620  0.0610
11593SOL     OW36219   6.414   1.449   7.982 -0.2840 -0.0476  0.1993
11593SOL    HW136220   6.507   1.464   7.969 -0.4420  4.2176  2.3763
11593SOL    HW236221   6.403   1.447   8.077 -2.6537  2.8285  0.1416
11594SOL     OW36222   3.513   3.199   6.264  0.2304 -0.1369 -0.4193
11594SOL    HW136223   3.499   3.205   6.170  0.5092  1.3088 -0.4040
11594SOL    HW236224   3.575   3.270   6.283 -1.3307  0.9103  1.1033
11595SOL     OW36225   5.254   6.676  11.051  0.4392  0.4279 -0.2144
11595SOL    HW136226   5.319   6.746  11.050  0.1760  0.6764 -0.2309
11595SOL    HW236227   5.272   6.625  10.972  0.4988  0.6025 -0.3150
11596SOL     OW36228   1.622   0.385   9.982  0.0202  0.1805 -0.7634
11596SOL    HW136229   1.540   0.366  10.027 -0.4019  0.2075 -1.4928
11596SOL    HW236230   1.689   0.376  10.049 -0.5865  0.2421 -0.1336
11597SOL     OW36231   3.701   0.305  10.907  0.2298  1.0357 -0.1819
11597SOL    HW136232   3.725   0.232  10.963  4.1779 -0.2269 -3.0821
11597SOL    HW236233   3.614   0.283  10.873  0.2304 -0.9680  1.0181
11598SOL     OW36234   3.689   1.084   7.202  0.1523 -0.4692 -0.0960
11598SOL    HW136235   3.687   1.159   7.142  0.0695 -1.0809 -0.8747
11598SOL    HW236236   3.782   1.076   7.226  0.4120 -1.0247 -1.2036
11599SOL     OW36237   3.367   1.809  12.213 -0.2706 -0.0273  0.2931
11599SOL    HW136238   3.306   1.877  12.184 -0.2248  0.6572  1.7159
11599SOL    HW236239   3.311   1.735  12.238 -0.4508  0.2381  0.6700
11600SOL     OW36240   2.802   1.155   3.372 -0.3448  0.1147  0.0743
11600SOL    HW136241   2.864   1.086   3.396 -0.5331 -0.9080 -2.0985
11600SOL    HW236242   2.783   1.200   3.454  0.8311 -1.5491  1.3349
11601SOL     OW36243   4.905   0.241   0.046 -0.0045 -0.4332  0.1274
11601SOL    HW136244   4.880   0.177  -0.020 -2.8242 -0.0998  0.7170
11601SOL    HW236245   4.924   0.321  -0.004 -1.1986 -0.4430 -0.3747
11602SOL     OW36246   7.482   7.922   4.818 -0.3065  0.3081  0.0617
11602SOL    HW136247   7.569   7.960   4.806 -0.7909  1.1352 -0.9860
11602SOL    HW236248   7.437   7.985   4.876  0.2160 -0.8283  1.7699
11603SOL     OW36249   5.296   4.254   2.505 -0.5501 -0.1155  0.0253
11603SOL    HW136250   5.232   4.325   2.507  0.3763  0.7469 -0.1462
11603SOL    HW236251   5.380   4.297   2.524 -0.1691 -1.3943  1.4269
11604SOL     OW36252   3.478   5.458   5.227  0.2937  0.3812 -0.4489
11604SOL    HW136253   3.467   5.387   5.163 -2.0196 -0.4597  0.7523
11604SOL    HW236254   3.388   5.482   5.251  1.0835  2.0849  0.9541
11605SOL     OW36255   5.509   4.659   4.385 -0.1246  0.6131 -0.0254
11605SOL    HW136256   5.582   4.659   4.447  0.4185 -0.1214 -0.6290
11605SOL    HW236257   5.445   4.598   4.422  1.1039 -1.4862 -1.1343
11606SOL     OW36258   6.165   1.655   3.376 -0.0773  0.2011 -0.0331
11606SOL    HW136259   6.236   1.679   3.436 -1.0512  1.2888  0.7535
11606SOL    HW236260   6.201   1.672   3.289  0.9349 -0.1573  0.2966
11607SOL     OW36261   6.706   2.992   7.357 -0.1862 -0.1005 -0.1997
11607SOL    HW136262   6.746   3.001   7.270 -1.3409 -0.9238 -0.8370
11607SOL    HW236263   6.612   2.990   7.340 -0.5333  1.5117  1.2462
11608SOL     OW36264   4.500   1.467   3.776  0.2986 -0.5254  0.3320
11608SOL    HW136265   4.463   1.388   3.737  0.6374 -0.4916 -0.0645
11608SOL    HW236266   4.470   1.465   3.867 -1.7102  0.1424 -0.2632
11609SOL     OW36267   2.297   6.269   4.055 -0.1487 -0.0930  0.6286
11609SOL    HW136268   2.224   6.322   4.022 -0.0419 -0.4038 -0.1510
11609SOL    HW236269   2.375   6.310   4.017  0.2963  1.4018  3.0035
11610SOL     OW36270   2.727   7.245  12.150 -0.2362  0.0313  0.2280
11610SOL    HW136271   2.782   7.222  12.225 -1.4663 -2.4524  0.4774
11610SOL    HW236272   2.743   7.175  12.087 -1.1237  0.7090 -0.7752
11611SOL     OW36273   7.401   5.591   2.561 -0.1900 -0.1109  0.6005
11611SOL    HW136274   7.426   5.532   2.632 -1.0439 -2.1350 -0.6852
11611SOL    HW236275   7.311   5.565   2.540 -0.1769  0.8828 -0.7895
11612SOL     OW36276   7.266   0.340   5.520 -0.2711  0.1290 -0.4324
11612SOL    HW136277   7.360   0.351   5.532 -0.1872 -0.5660 -0.3730
11612SOL    HW236278   7.258   0.292   5.437 -0.5364 -0.2594 -0.1911
11613SOL     OW36279   1.570   6.740   1.962  0.8857 -0.1154 -0.3296
11613SOL    HW136280   1.503   6.755   2.029  1.3427 -0.0193  0.1099
11613SOL    HW236281   1.550   6.653   1.926 -0.1298  0.3630 -0.9722
11614SOL     OW36282   3.109   1.119   6.661 -0.0323  0.4859  0.0939
11614SOL    HW136283   3.104   1.168   6.743  1.3533  0.5336  0.1734
11614SOL    HW236284   3.133   1.184   6.595  0.2518  0.2040 -0.0875
11615SOL     OW36285   3.151   2.473   1.060  0.2819  0.5642  0.4753
11615SOL    HW136286   3.124   2.400   1.005  2.3713 -0.0521  0.1667
11615SOL    HW236287   3.099   2.464   1.140  1.1818 -1.8762  0.8529
11616SOL     OW36288   3.946   4.314   3.810  0.0547 -0.6912 -0.1376
11616SOL    HW136289   4.025   4.366   3.827 -0.3613 -0.7701  2.4745
11616SOL    HW236290   3.970   4.257   3.738  1.4802  1.0924 -1.1745
11617SOL     OW36291   2.662   2.857   8.050  0.1739 -0.3838 -0.1182
11617SOL    HW136292   2.630   2.923   7.988 -0.5267  0.1489  0.7785
11617SOL    HW236293   2.608   2.780   8.032 -0.7192  0.0863  0.4777
11618SOL     OW36294   7.600   7.645   0.683 -0.0994 -0.0652 -0.2491
11618SOL    HW136295   7.573   7.584   0.751 -1.2530  0.1943 -0.4504
11618SOL    HW236296   7.671   7.600   0.637 -0.1361 -0.7491  0.3506
11619SOL     OW36297   3.888   0.322   6.096  0.1661  0.4725  0.4795
11619SOL    HW136298   3.900   0.239   6.049  1.8333  0.8236  0.2387
11619SOL    HW236299   3.800   0.349   6.072 -0.3695 -1.1557  0.4512
11620SOL     OW36300   6.867   1.855   0.718  0.0555  0.1548  0.4753
11620SOL    HW136301   6.941   1.850   0.657 -1.8354 -0.0237 -1.9215
11620SOL    HW236302   6.867   1.946   0.747  1.3198  0.1092  0.6702
11621SOL     OW36303   7.798   3.280   5.075  0.2701  0.4846 -0.3292
11621SOL    HW136304   7.775   3.235   4.994 -0.3348 -1.7550  0.9866
11621SOL    HW236305   7.891   3.300   5.066  0.7591 -1.7204 -0.7645
11622SOL     OW36306   0.780   4.573  12.196  0.3460 -0.0964  0.0851
11622SOL    HW136307   0.819   4.588  12.282  0.0652  0.2881  0.1479
11622SOL    HW236308   0.789   4.479  12.182  0.1103 -0.2127  0.6767
11623SOL     OW36309   7.199   6.529   5.472 -0.1777  0.1056  0.5905
11623SOL    HW136310   7.195   6.618   5.507  1.5562  0.7630 -0.7449
11623SOL    HW236311   7.115   6.517   5.427 -0.3479  1.1188  0.6255
11624SOL     OW36312   4.706   2.682   2.905  0.3334 -0.2184 -0.2866
11624SOL    HW136313   4.791   2.699   2.864  1.0652 -1.7002  0.5331
11624SOL    HW236314   4.672   2.605   2.859 -0.3093  0.0078 -0.2053
11625SOL     OW36315   3.444   6.126   7.497 -0.4526  0.2711 -0.1091
11625SOL    HW136316   3.486   6.073   7.565 -0.5057 -0.2483 -0.4725
11625SOL    HW236317   3.392   6.190   7.546  0.8900  1.0632  0.3594
11626SOL     OW36318   5.014   6.440  11.236 -0.6209  0.0949  0.0180
11626SOL    HW136319   4.919   6.435  11.227 -0.5775 -0.2985 -0.2244
11626SOL    HW236320   5.048   6.413  11.151 -0.2947  0.4406  0.0359
11627SOL     OW36321   3.471   1.951   4.477  0.2985  0.5648 -0.0124
11627SOL    HW136322   3.478   1.897   4.555 -0.8136  1.5000  0.7681
11627SOL    HW236323   3.561   1.974   4.455  0.6983 -0.6575  0.2974
11628SOL     OW36324   5.642   7.351   2.487  0.8402  0.2009 -0.3423
11628SOL    HW136325   5.719   7.302   2.459  1.4669  0.8747  0.1424
11628SOL    HW236326   5.587   7.286   2.532  1.8050 -0.0146  0.5765
11629SOL     OW36327   5.098   7.000   3.786  0.2145 -0.2900 -0.1464
11629SOL    HW136328   5.117   7.035   3.873 -0.3943  0.3144 -0.2498
11629SOL    HW236329   5.174   7.025   3.733  0.3315 -0.1775  0.0734
11630SOL     OW36330   4.948   1.182   1.788 -0.7744  0.2423 -0.0686
11630SOL    HW136331   4.868   1.130   1.794 -0.0861 -1.0371 -1.2971
11630SOL    HW236332   4.930   1.245   1.719 -0.6921 -0.1422 -0.4486
11631SOL     OW36333   6.239   1.922   5.043  0.3914  0.3954 -0.0467
11631SOL    HW136334   6.166   1.951   4.989  0.5495  1.6752  0.3922
11631SOL    HW236335   6.242   1.986   5.115  1.8022  0.2332  0.0571
11632SOL     OW36336   3.800   1.397   8.152 -0.3540  0.0599  0.0843
11632SOL    HW136337   3.857   1.409   8.076 -2.1672  0.0449 -1.3490
11632SOL    HW236338   3.856   1.356   8.218  0.7269 -2.2351 -2.0686
11633SOL     OW36339   5.889   0.914   0.013  0.7204  0.5107 -0.2868
11633SOL    HW136340   5.921   0.976   0.078  0.8227  0.5351 -0.3595
11633SOL    HW236341   5.966   0.862  -0.010 -0.1049 -2.2956  2.6270
11634SOL     OW36342   6.315   1.019  11.440  0.2252  0.1077  0.6108
11634SOL    HW136343   6.296   1.053  11.353  2.7972 -0.8653 -0.4410
11634SOL    HW236344   6.327   0.925  11.426  1.8725  0.1203  1.7669
11635SOL     OW36345   3.326   3.053   8.835 -0.2547 -0.4095  0.0106
11635SOL    HW136346   3.346   3.048   8.928  0.3681  0.1468 -0.0889
11635SOL    HW236347   3.398   3.007   8.793 -0.3474 -0.3474 -0.2166
11636SOL     OW36348   7.501   4.462   0.071  0.1980 -0.6433 -0.2703
11636SOL    HW136349   7.410   4.440   0.053  0.1722 -0.1848 -0.7201
11636SOL    HW236350   7.541   4.379   0.098 -0.3262 -0.8666 -0.1684
11637SOL     OW36351   5.763   2.445   4.802  0.8326  0.0893  0.1220
11637SOL    HW136352   5.819   2.374   4.831  0.7796  0.2607  0.6546
11637SOL    HW236353   5.708   2.465   4.877  1.4666  1.2974  0.2855
11638SOL     OW36354   3.257   0.746   8.783 -1.0733 -0.0296 -0.0916
11638SOL    HW136355   3.186   0.809   8.771  0.3065  1.4465 -0.8978
11638SOL    HW236356   3.223   0.664   8.745 -2.3145  0.6427 -0.4776
11639SOL     OW36357   5.881   7.604   2.433 -0.0116 -0.1912  0.3400
11639SOL    HW136358   5.883   7.590   2.528 -0.0528  1.3372  0.5813
11639SOL    HW236359   5.908   7.695   2.421 -3.8141  0.9509 -0.8284
11640SOL     OW36360   0.028   5.866   7.279 -0.0483  0.0943 -0.4457
11640SOL    HW136361   0.010   5.806   7.351  0.2796  0.0165 -0.4258
11640SOL    HW236362  -0.041   5.932   7.284 -0.4547 -0.3219 -0.5154
11641SOL     OW36363   6.349   6.050   6.547  0.0732  0.1106  0.0055
11641SOL    HW136364   6.420   6.019   6.491 -1.2462 -0.8800 -1.2059
11641SOL    HW236365   6.327   6.137   6.513 -0.9076 -0.6006 -1.2599
11642SOL     OW36366   2.892   2.037   3.907 -0.6977 -0.3889  0.0350
11642SOL    HW136367   2.870   2.065   3.818  0.8084  0.6321 -0.0622
11642SOL    HW236368   2.987   2.050   3.914 -0.6025 -1.5203  1.4337
11643SOL     OW36369   3.155   7.843   9.986 -0.3779 -0.0134  0.1284
11643SOL    HW136370   3.164   7.775  10.054  1.2793  1.3407  1.3639
11643SOL    HW236371   3.227   7.825   9.925 -0.1354  0.4216  0.2821
11644SOL     OW36372   3.570   5.916   2.369 -0.2106  0.3343  0.1510
11644SOL    HW136373   3.554   5.889   2.460  0.6384  0.6085  0.3977
11644SOL    HW236374   3.484   5.940   2.335 -0.3567  1.5856  1.3367
11645SOL     OW36375   4.130   5.826  11.341 -0.0904  0.0680  0.4855
11645SOL    HW136376   4.163   5.758  11.281  0.8881  0.4028  0.6323
11645SOL    HW236377   4.050   5.788  11.378 -0.3720 -0.3983 -0.5579
11646SOL     OW36378   6.439   6.699   5.194  0.0153  0.3064 -0.6249
11646SOL    HW136379   6.439   6.726   5.102 -0.0875 -2.6790 -1.5816
11646SOL    HW236380   6.464   6.607   5.192 -1.3394 -0.2154  2.2413
11647SOL     OW36381   3.908   4.673   6.871 -0.0504  0.2285  0.2911
11647SOL    HW136382   3.855   4.752   6.867  0.3809  0.8224  3.3417
11647SOL    HW236383   3.875   4.627   6.949  1.6360 -1.0854  0.2894
11648SOL     OW36384   0.661   4.309   6.925  0.0657 -0.3621  0.4276
11648SOL    HW136385   0.746   4.353   6.928 -0.5060  0.7409  2.8406
11648SOL    HW236386   0.635   4.314   6.833  1.8454  0.7730 -0.0723
11649SOL     OW36387   5.515   4.289   4.162  0.2642 -0.6603 -0.1726
11649SOL    HW136388   5.558   4.245   4.088  1.8167  0.1367  0.1938
11649SOL    HW236389   5.584   4.344   4.199 -1.6828  2.6316 -1.0278
11650SOL     OW36390   4.067   5.407   0.016  0.4609  0.2000  0.1462
11650SOL    HW136391   4.142   5.350   0.034  0.2877 -0.1329 -0.1764
11650SOL    HW236392   4.028   5.424   0.102  0.3422 -0.4008  0.2138
11651SOL     OW36393   1.226   2.184   4.803 -0.3777  0.8043 -0.0944
11651SOL    HW136394   1.136   2.203   4.777 -0.5855 -0.4975 -0.3919
11651SOL    HW236395   1.281   2.231   4.740 -0.8429  1.0827 -0.2946
11652SOL     OW36396   0.612   4.007  10.617  0.4342  0.4387 -0.0471
11652SOL    HW136397   0.595   4.084  10.671  0.3151  1.0446 -0.9307
11652SOL    HW236398   0.540   4.006  10.554  0.2105 -0.6367  0.2166
11653SOL     OW36399   6.019   3.967   0.976 -0.2490  0.2010 -0.2530
11653SOL    HW136400   5.931   3.952   0.943 -0.0231  1.3824 -1.5053
11653SOL    HW236401   6.072   3.986   0.898  1.1588 -0.6411  0.4468
11654SOL     OW36402   0.818   6.844   4.323  0.8025 -0.5137  0.6194
11654SOL    HW136403   0.736   6.839   4.371  0.0743  0.4126 -0.4843
11654SOL    HW236404   0.792   6.863   4.233  2.2538  0.6917  0.4146
11655SOL     OW36405   4.490   6.265   4.985 -0.2152 -0.0483  0.2320
11655SOL    HW136406   4.414   6.270   5.044 -0.2340 -1.4725  0.3563
11655SOL    HW236407   4.533   6.183   5.009  1.4684  0.8133  0.2740
11656SOL     OW36408   5.056   7.302   2.115  0.4902  0.1772 -0.0898
11656SOL    HW136409   5.106   7.384   2.120  0.1518  0.4316 -0.6764
11656SOL    HW236410   4.993   7.318   2.044  0.3953 -0.5774 -0.1780
11657SOL     OW36411   6.807   7.821   7.238  0.1033 -0.3545  0.0663
11657SOL    HW136412   6.818   7.755   7.170 -1.1278 -0.8309  0.2950
11657SOL    HW236413   6.895   7.838   7.271  0.4867 -1.5406 -0.3244
11658SOL     OW36414   7.007   7.379   9.720  0.3614  1.0685  0.2945
11658SOL    HW136415   7.072   7.439   9.757  1.9369  0.1957 -0.9357
11658SOL    HW236416   6.933   7.436   9.697  0.9790  2.2132  1.0098
11659SOL     OW36417   4.395   5.588   6.556 -1.0619  0.0905  0.2417
11659SOL    HW136418   4.315   5.569   6.606 -1.2744 -0.7810 -0.4037
11659SOL    HW236419   4.402   5.516   6.494 -0.0198  0.4088 -0.0286
11660SOL     OW36420   6.901   0.460   3.736 -0.0635  0.1888 -0.7603
11660SOL    HW136421   6.874   0.369   3.751 -0.9485  0.9117  3.1837
11660SOL    HW236422   6.829   0.498   3.685 -0.4919 -0.8941 -1.0061
11661SOL     OW36423   5.871   2.280   2.324  0.5321 -0.7573  0.0027
11661SOL    HW136424   5.830   2.357   2.365  0.8540 -0.2738 -0.5771
11661SOL    HW236425   5.809   2.254   2.256  1.3035  0.1805 -1.1060
11662SOL     OW36426   4.297   3.538  10.406 -0.0804 -0.2016 -0.1318
11662SOL    HW136427   4.272   3.584  10.325 -0.2373 -0.2871 -0.1325
11662SOL    HW236428   4.368   3.591  10.442 -1.7984  1.3761  1.0983
11663SOL     OW36429   7.407   6.412   7.451 -0.5015 -0.3675 -0.2526
11663SOL    HW136430   7.446   6.353   7.516 -0.6824 -0.2678 -0.0501
11663SOL    HW236431   7.416   6.366   7.368 -0.1301 -0.4301 -0.1777
11664SOL     OW36432   5.146   3.578   4.487 -0.4826 -0.1025  0.5116
11664SOL    HW136433   5.105   3.500   4.450  1.2872 -0.7331 -0.2061
11664SOL    HW236434   5.173   3.630   4.411  0.6620 -0.0592  0.9234
11665SOL     OW36435   7.397   7.597   6.347 -0.1052 -0.0409 -0.2561
11665SOL    HW136436   7.334   7.563   6.410 -0.0559  0.1045 -0.1278
11665SOL    HW236437   7.399   7.531   6.277  0.2691 -0.4915  0.1672
11666SOL     OW36438   3.293   4.128   0.422  0.1458 -0.5915 -0.0758
11666SOL    HW136439   3.280   4.155   0.331  0.5797 -1.6069 -0.4565
11666SOL    HW236440   3.208   4.140   0.463  0.2963  1.2428 -0.2295
11667SOL     OW36441   4.798   6.970   9.262  0.3974 -0.0963 -0.2363
11667SOL    HW136442   4.846   6.973   9.345 -0.5643 -1.4686  0.4220
11667SOL    HW236443   4.850   6.911   9.207  0.0188 -0.8031  0.1346
11668SOL     OW36444   4.538   7.762   5.853 -0.1175 -0.1751  0.0974
11668SOL    HW136445   4.582   7.717   5.781 -1.0211 -0.3872 -0.3474
11668SOL    HW236446   4.503   7.692   5.908 -0.4582 -0.0271  0.0787
11669SOL     OW36447   4.342   3.970   8.710  0.1938  0.2263  0.4816
11669SOL    HW136448   4.265   4.016   8.676 -0.6003 -0.7548  0.8669
11669SOL    HW236449   4.343   3.886   8.663  0.2657 -0.2990  1.3886
11670SOL     OW36450   5.208   3.358   6.793  0.3977  0.1009  0.7828
11670SOL    HW136451   5.291   3.322   6.823  0.0957 -1.0003  0.3377
11670SOL    HW236452   5.143   3.325   6.855  0.0245 -0.7120 -0.0187
11671SOL     OW36453   6.752   3.242   7.052  0.6121  0.4262  0.6155
11671SOL    HW136454   6.692   3.221   6.979  0.0592  0.9313  0.9137
11671SOL    HW236455   6.790   3.158   7.076  0.9244  0.2724 -0.3614
11672SOL     OW36456   4.426   0.858   8.243  0.3800 -0.2386  0.0882
11672SOL    HW136457   4.488   0.898   8.182 -0.0716  0.6317  0.1864
11672SOL    HW236458   4.436   0.764   8.229 -0.1812 -0.0630 -1.8044
11673SOL     OW36459   5.270   1.843   1.123  0.3768  0.1198  0.2962
11673SOL    HW136460   5.315   1.851   1.039 -0.8755  1.1296 -0.2941
11673SOL    HW236461   5.193   1.789   1.104  1.3651 -1.7750  1.3475
11674SOL     OW36462   2.276   1.746   7.213  0.4414 -0.3081  0.2522
11674SOL    HW136463   2.208   1.683   7.191  0.6685 -0.5399  0.2022
11674SOL    HW236464   2.229   1.827   7.232  0.2394 -0.0707 -1.1658
11675SOL     OW36465   3.951   0.803   7.308 -0.0651  0.2520 -0.2807
11675SOL    HW136466   3.872   0.750   7.296 -0.0696  0.6010 -2.1407
11675SOL    HW236467   3.972   0.794   7.401 -1.1631 -1.4336 -0.1466
11676SOL     OW36468   2.229   3.036  12.149 -0.2647 -0.3835 -0.0426
11676SOL    HW136469   2.157   2.975  12.135  0.0516 -1.2206  1.7100
11676SOL    HW236470   2.308   2.983  12.137  0.0449  0.2044 -0.6251
11677SOL     OW36471   0.876   1.578   5.223 -0.2297 -0.1887 -0.9031
11677SOL    HW136472   0.878   1.674   5.231 -0.1578 -0.2133 -0.6451
11677SOL    HW236473   0.783   1.556   5.228 -0.3021 -0.0801 -1.5806
11678SOL     OW36474   0.412   7.269   7.690 -0.1974 -0.8581  0.0018
11678SOL    HW136475   0.480   7.202   7.680  0.5192 -0.1623  0.0600
11678SOL    HW236476   0.459   7.345   7.724 -0.8314 -0.0668 -0.8377
11679SOL     OW36477   5.046   2.883   4.591  0.1775 -0.0745 -0.3260
11679SOL    HW136478   5.125   2.899   4.643 -0.4026 -2.3810  1.4546
11679SOL    HW236479   5.016   2.970   4.566  2.7070  0.9255 -0.2361
11680SOL     OW36480   0.208   1.637   2.105  0.4624 -0.3751  0.3162
11680SOL    HW136481   0.170   1.564   2.155  0.9356  0.2662  1.6582
11680SOL    HW236482   0.201   1.609   2.014 -0.7339 -1.4525  0.6981
11681SOL     OW36483   4.829   4.931   2.270 -0.5120 -0.0712  0.6481
11681SOL    HW136484   4.885   5.005   2.293 -1.6522  1.1502 -0.3561
11681SOL    HW236485   4.865   4.899   2.187 -1.0539  0.4790  0.1924
11682SOL     OW36486   7.289   3.704  10.378 -0.0821 -0.5139  0.0461
11682SOL    HW136487   7.251   3.751  10.304  0.5046 -3.3176 -2.2454
11682SOL    HW236488   7.382   3.696  10.355  0.3161 -0.5903  1.6046
11683SOL     OW36489   6.491   1.170   1.581  0.3046 -0.4069  0.1124
11683SOL    HW136490   6.413   1.132   1.621 -1.0847  2.3637  0.2959
11683SOL    HW236491   6.556   1.169   1.650 -0.5819  0.0401  0.9825
11684SOL     OW36492   5.832   4.388   4.188 -0.1762 -0.2775 -0.3018
11684SOL    HW136493   5.832   4.339   4.271  1.5599  1.6495  0.9346
11684SOL    HW236494   5.917   4.368   4.149  0.0281  0.7070 -0.3869
11685SOL     OW36495   2.790   1.987  10.791 -0.5939  0.6876  0.0796
11685SOL    HW136496   2.710   2.008  10.840 -0.1515 -0.6560  1.4459
11685SOL    HW236497   2.803   2.063  10.735 -3.6860  0.3293 -1.3753
11686SOL     OW36498   3.955   4.089  10.604  0.5779 -0.1447  0.1865
11686SOL    HW136499   3.874   4.122  10.643  1.1370  0.4361  0.8740
11686SOL    HW236500   4.017   4.161  10.614  2.5249 -2.0816  3.7723
11687SOL     OW36501   7.085   7.347  10.358  0.6677 -0.2831  0.2331
11687SOL    HW136502   7.033   7.407  10.304  0.5752 -0.3262  0.2749
11687SOL    HW236503   7.063   7.260  10.325 -0.0474 -0.3639  0.9092
11688SOL     OW36504   2.719   0.760   9.479  0.1142  0.2228  0.3676
11688SOL    HW136505   2.802   0.711   9.482  0.2714  0.4540 -0.1580
11688SOL    HW236506   2.703   0.774   9.386 -1.3289 -1.1815  0.3580
11689SOL     OW36507   3.235   6.131   7.926 -0.8991  0.3907  0.0666
11689SOL    HW136508   3.285   6.062   7.882 -1.0543  1.7501 -2.4108
11689SOL    HW236509   3.154   6.087   7.954  0.4037 -1.1719  1.6243
11690SOL     OW36510   1.916   3.802   8.000 -0.3611  0.1835 -0.0521
11690SOL    HW136511   1.959   3.874   7.955 -0.9698 -1.0431 -2.7864
11690SOL    HW236512   1.897   3.836   8.088  0.5595  2.8359 -0.7989
11691SOL     OW36513   6.297   4.758   9.732 -0.4128  0.5694 -0.0518
11691SOL    HW136514   6.278   4.753   9.826  1.0297  3.2745  0.4824
11691SOL    HW236515   6.380   4.711   9.722 -0.5992  0.2241  0.0007
11692SOL     OW36516   6.575   7.530   8.321  0.6263  0.1342 -0.0358
11692SOL    HW136517   6.586   7.502   8.412  0.3654  1.5169  0.4510
11692SOL    HW236518   6.636   7.603   8.311  0.7557 -0.1017 -1.0221
11693SOL     OW36519   1.295   7.262   5.330 -0.3301 -0.0240  0.6920
11693SOL    HW136520   1.302   7.288   5.422  0.2392  0.6373  0.4694
11693SOL    HW236521   1.378   7.289   5.291  0.0973 -1.7811  0.3344
11694SOL     OW36522   5.542   3.389  11.917  0.7122 -0.4272  0.6759
11694SOL    HW136523   5.620   3.376  11.862  1.3182 -0.6785  1.5764
11694SOL    HW236524   5.527   3.304  11.958 -0.5573 -0.6129 -0.1291
11695SOL     OW36525   2.625   7.451   0.842 -0.5052  0.2666 -0.4374
11695SOL    HW136526   2.671   7.529   0.874  1.0275 -0.7152 -0.1995
11695SOL    HW236527   2.688   7.408   0.785 -1.7890 -0.1576 -1.5900
11696SOL     OW36528   0.377   7.564   2.619  0.6225  0.1975  0.2078
11696SOL    HW136529   0.383   7.570   2.523 -0.3661 -0.2337  0.1039
11696SOL    HW236530   0.452   7.511   2.644  2.8055  2.9967  0.0248
11697SOL     OW36531   1.924   5.620   1.628  0.4980  0.5631 -0.3218
11697SOL    HW136532   1.994   5.604   1.563  1.6369  1.6694  0.5974
11697SOL    HW236533   1.964   5.597   1.712 -0.4290  0.7173  0.1702
11698SOL     OW36534   7.838   2.873   3.211  0.3967  0.6412  0.1341
11698SOL    HW136535   7.794   2.956   3.227  1.1140  0.9603  0.4982
11698SOL    HW236536   7.770   2.816   3.174 -0.5169  0.8536  1.4444
11699SOL     OW36537   0.235   3.025   1.819 -0.0187 -0.1625  0.0758
11699SOL    HW136538   0.204   2.982   1.739  0.9459  2.2300 -1.7174
11699SOL    HW236539   0.170   3.093   1.837  0.9029  0.7996 -0.0678
11700SOL     OW36540   2.758   0.529   3.485  0.5356  0.5361 -0.7815
11700SOL    HW136541   2.681   0.475   3.464  0.0495  2.0645 -3.3817
11700SOL    HW236542   2.786   0.498   3.571 -1.7320 -1.4990 -0.6600
11701SOL     OW36543   5.437   6.876  11.064 -0.0115 -0.0918 -0.4632
11701SOL    HW136544   5.507   6.906  11.006  0.1589 -0.9247 -0.7121
11701SOL    HW236545   5.467   6.899  11.152 -0.3748  1.3780 -0.7114
11702SOL     OW36546   5.763   2.897   0.411  0.6733 -0.3776  0.0992
11702SOL    HW136547   5.783   2.913   0.504  1.4877  1.3906 -0.3295
11702SOL    HW236548   5.768   2.984   0.371 -1.2432 -0.8761 -1.3295
11703SOL     OW36549   7.029   6.121   8.108 -0.2001  0.4016  0.2208
11703SOL    HW136550   7.007   6.033   8.076  0.8789 -0.7908  2.5318
11703SOL    HW236551   7.112   6.110   8.155 -0.3962  2.5163  1.1859
11704SOL     OW36552   1.082   1.495   9.354  0.2678 -0.4232 -0.1710
11704SOL    HW136553   1.005   1.550   9.366 -0.0668 -1.0249  0.5175
11704SOL    HW236554   1.115   1.518   9.267 -0.1602  0.4837 -0.1012
11705SOL     OW36555   6.188   0.396  11.284 -0.4056  0.3556  0.4279
11705SOL    HW136556   6.171   0.490  11.286 -1.2689  0.1908  2.0803
11705SOL    HW236557   6.114   0.359  11.236 -1.0797  0.3368  1.4703
11706SOL     OW36558   2.923   5.073  10.587 -0.2344 -0.1307 -0.2869
11706SOL    HW136559   3.015   5.049  10.574 -0.3692 -2.0218  1.5601
11706SOL    HW236560   2.906   5.142  10.523  2.7360  0.9836 -0.0123
11707SOL     OW36561   5.968   0.988   9.142  0.3284  0.3079 -0.1234
11707SOL    HW136562   5.958   0.912   9.084 -0.5803  1.8743 -2.1481
11707SOL    HW236563   6.062   1.002   9.148  0.5115 -0.9527  0.3034
11708SOL     OW36564   5.332   5.680   9.126 -0.6092 -0.5809  0.5875
11708SOL    HW136565   5.363   5.596   9.091 -1.4719 -1.0058  0.8127
11708SOL    HW236566   5.250   5.658   9.170 -1.0765  0.4697  0.2495
11709SOL     OW36567   4.132   2.239   4.685 -0.1890  0.6852 -0.0563
11709SOL    HW136568   4.039   2.257   4.697 -0.6065  0.7921 -2.8669
11709SOL    HW236569   4.166   2.228   4.774 -2.4992  2.3874  1.1254
11710SOL     OW36570   5.199   4.382   4.320  0.6577  0.6621  0.6124
11710SOL    HW136571   5.237   4.294   4.315  0.1559  0.5144 -2.1659
11710SOL    HW236572   5.104   4.367   4.317  0.5613  1.2913  0.3583
11711SOL     OW36573   5.129   0.861   9.088  0.5494  0.1573 -0.1857
11711SOL    HW136574   5.125   0.880   8.994  0.2881  0.2066 -0.1655
11711SOL    HW236575   5.073   0.784   9.098  0.7109  0.0516 -0.0953
11712SOL     OW36576   1.955   7.156   9.017  0.1585 -0.5108 -0.4428
11712SOL    HW136577   1.915   7.159   9.104  0.5030  0.8415 -0.3018
11712SOL    HW236578   1.998   7.241   9.007  0.4801 -0.7947 -1.7763
11713SOL     OW36579   7.058   4.029   8.323 -0.3046  0.2002 -0.0696
11713SOL    HW136580   6.998   4.085   8.373 -0.8438  0.4560 -0.9887
11713SOL    HW236581   7.038   3.940   8.354 -1.3090  0.2634 -0.4939
11714SOL     OW36582   7.434   1.585   8.646 -0.8589 -0.4789 -0.1668
11714SOL    HW136583   7.519   1.567   8.604 -1.1306 -2.1294 -0.0725
11714SOL    HW236584   7.420   1.678   8.632  0.9602 -0.1812 -0.2192
11715SOL     OW36585   6.122   2.704   6.791 -0.4989  0.6717 -0.4522
11715SOL    HW136586   6.137   2.611   6.774 -0.9759  0.4481  0.2895
11715SOL    HW236587   6.209   2.739   6.810 -0.4277  0.1494  0.2615
11716SOL     OW36588   7.819   6.722   2.630  1.0147  0.2343  0.4497
11716SOL    HW136589   7.846   6.663   2.561 -0.0800 -0.8675  0.9296
11716SOL    HW236590   7.828   6.810   2.592 -0.4645 -0.3583 -1.4456
11717SOL     OW36591   0.326   1.297   3.087 -0.1648 -0.7127  0.4861
11717SOL    HW136592   0.271   1.370   3.116  0.9536 -0.0973  1.0908
11717SOL    HW236593   0.264   1.225   3.075 -1.0645 -0.1346  1.4708
11718SOL     OW36594   6.724   7.864   9.188  0.2072  0.5584  0.0014
11718SOL    HW136595   6.639   7.904   9.170  1.1677  2.7055 -0.0530
11718SOL    HW236596   6.725   7.785   9.135 -2.0086  0.0908  0.5289
11719SOL     OW36597   7.181   1.248   8.939 -0.3376  0.1517 -0.2734
11719SOL    HW136598   7.167   1.238   9.033  2.0543 -2.8454 -0.1013
11719SOL    HW236599   7.112   1.195   8.899 -0.2196 -0.1232 -0.1156
11720SOL     OW36600   7.294   4.225   6.454  0.1822 -0.3006 -0.0867
11720SOL    HW136601   7.235   4.159   6.488  0.1995  0.1711  0.8984
11720SOL    HW236602   7.380   4.203   6.492  0.3798 -0.2543 -0.4999
11721SOL     OW36603   4.573   4.238   5.177 -0.3509 -0.3204 -0.4963
11721SOL    HW136604   4.589   4.150   5.144  0.4581  0.9881 -3.9924
11721SOL    HW236605   4.656   4.284   5.166 -1.5731  1.7299 -1.9180
11722SOL     OW36606   2.072   1.730   2.110 -0.1912  0.4443 -1.0252
11722SOL    HW136607   2.029   1.815   2.115  0.1931  0.5862  0.0918
11722SOL    HW236608   2.165   1.749   2.123 -0.2949 -0.3218  1.3295
11723SOL     OW36609   0.797   2.366  10.251  0.1406 -0.2134 -0.6369
11723SOL    HW136610   0.865   2.387  10.186  1.2038 -0.4896  0.3618
11723SOL    HW236611   0.845   2.340  10.329 -1.0242  2.8642  1.2865
11724SOL     OW36612   7.554   7.467  10.094 -0.2223 -0.0850  0.0176
11724SOL    HW136613   7.465   7.474  10.128 -0.9109  0.8133 -1.8120
11724SOL    HW236614   7.599   7.544  10.127 -1.5849  2.1176 -2.8514
11725SOL     OW36615   5.272   2.673   5.008 -0.3736  0.1747  0.0701
11725SOL    HW136616   5.265   2.767   4.996 -2.3318  0.1469  0.6986
11725SOL    HW236617   5.200   2.636   4.958 -0.8888 -0.8167  1.4637
11726SOL     OW36618   0.541   6.042   4.497 -0.1187  0.1283 -0.1370
11726SOL    HW136619   0.609   6.016   4.559 -0.1366 -2.1389 -1.0017
11726SOL    HW236620   0.583   6.107   4.441  0.8488 -0.0888  0.3184
11727SOL     OW36621   1.980   3.141  12.269  0.6834  0.2325 -0.4925
11727SOL    HW136622   2.004   3.050  12.289 -1.2049 -0.4326 -1.0557
11727SOL    HW236623   2.019   3.192  12.340  1.5188 -1.0394  0.0091
11728SOL     OW36624   4.084   2.833   9.865 -0.2652  0.2288  0.7630
11728SOL    HW136625   4.168   2.814   9.823 -0.4382  0.3330  0.3656
11728SOL    HW236626   4.102   2.824   9.959 -0.0352 -0.6509  0.6497
11729SOL     OW36627   0.031   1.828   1.531 -1.0099 -0.1840 -0.4763
11729SOL    HW136628   0.116   1.862   1.560 -0.4433  0.1232 -2.3110
11729SOL    HW236629  -0.022   1.825   1.610  1.0567 -1.4912  0.9705
11730SOL     OW36630   5.909   6.064   1.069  0.2397 -0.5958  0.1487
11730SOL    HW136631   5.897   6.126   0.997  1.4341  0.1925  0.5961
11730SOL    HW236632   6.000   6.076   1.096  0.6749 -2.9247 -0.0756
11731SOL     OW36633   5.678   2.700  12.222  0.1702 -0.2225  0.2758
11731SOL    HW136634   5.746   2.768  12.229  0.5089 -0.4308 -0.7672
11731SOL    HW236635   5.728   2.619  12.209 -0.2875 -0.2936 -1.1015
11732SOL     OW36636   7.306   5.579   8.502  0.4607  0.2155 -0.0430
11732SOL    HW136637   7.364   5.518   8.547  1.5941  0.9727 -0.4349
11732SOL    HW236638   7.240   5.524   8.460  0.5841 -0.6257  0.8458
11733SOL     OW36639   5.952   1.363   6.412  0.8465  0.3418  0.1151
11733SOL    HW136640   6.020   1.377   6.346  1.1233 -0.4003  0.2427
11733SOL    HW236641   5.870   1.379   6.364  1.0806  0.8237 -0.1430
11734SOL     OW36642   7.343   7.849   8.766  0.0559  0.1149 -0.0248
11734SOL    HW136643   7.311   7.800   8.690 -1.1216 -0.3576  0.7530
11734SOL    HW236644   7.270   7.850   8.828  0.8717  0.7745  0.9806
11735SOL     OW36645   0.167   6.216  11.014 -0.7016  0.5583 -0.7332
11735SOL    HW136646   0.184   6.310  11.009  0.9869  0.3165 -0.2640
11735SOL    HW236647   0.253   6.176  11.000 -1.2053 -0.8720  0.1130
11736SOL     OW36648   2.858   5.785  11.550 -0.2770  0.4334 -0.0470
11736SOL    HW136649   2.943   5.813  11.583 -0.5480  1.4948 -0.2225
11736SOL    HW236650   2.797   5.804  11.622 -0.1392 -1.9400  0.7693
11737SOL     OW36651   5.428   6.409   4.274 -0.4065  0.0332  0.0546
11737SOL    HW136652   5.434   6.367   4.188 -0.1137  0.3439 -0.0762
11737SOL    HW236653   5.405   6.500   4.254  1.4131  0.5646  0.2006
11738SOL     OW36654   7.530   5.540   8.786 -0.3769 -0.2746 -0.8231
11738SOL    HW136655   7.545   5.618   8.841  2.4951  0.5718 -2.5842
11738SOL    HW236656   7.441   5.513   8.807 -1.2866  3.1090  0.3692
11739SOL     OW36657   1.949   5.845   6.596  0.6568 -0.0099 -0.7129
11739SOL    HW136658   1.961   5.818   6.505  0.1679  0.1982 -0.8379
11739SOL    HW236659   1.961   5.940   6.595  3.1762 -0.2370 -0.1487
11740SOL     OW36660   1.839   3.138   6.065  0.1119 -0.2364  0.1139
11740SOL    HW136661   1.903   3.178   6.007  0.3805 -1.1536 -0.2410
11740SOL    HW236662   1.804   3.064   6.015  0.3792 -1.0665  1.1198
11741SOL     OW36663   1.486   7.264  10.660 -0.1570  0.1960  0.5398
11741SOL    HW136664   1.462   7.200  10.592 -2.4883  1.5431 -0.0246
11741SOL    HW236665   1.512   7.210  10.735  0.7528 -1.3529 -0.8127
11742SOL     OW36666   7.758   2.985   1.657  0.5941  0.3322 -0.3166
11742SOL    HW136667   7.662   2.976   1.660  0.6723 -2.1148 -1.9334
11742SOL    HW236668   7.774   3.077   1.676 -1.9163  0.4000  2.2196
11743SOL     OW36669   5.675   2.812   3.184 -0.1483  0.5928 -0.1902
11743SOL    HW136670   5.601   2.800   3.244  0.5798 -0.0951  0.5971
11743SOL    HW236671   5.672   2.735   3.127 -0.2198  0.7277 -0.3718
11744SOL     OW36672   2.031   1.107   2.092  0.3651 -0.2758  0.3106
11744SOL    HW136673   1.962   1.121   2.158  1.3649 -0.6747  1.4846
11744SOL    HW236674   2.105   1.073   2.143  1.4878  0.3229 -0.8969
11745SOL     OW36675   0.206   6.539   0.727 -0.0431 -0.2213  0.0979
11745SOL    HW136676   0.292   6.515   0.762  0.0399  0.0797  0.1050
11745SOL    HW236677   0.162   6.583   0.800  0.6174  1.5882 -0.5303
11746SOL     OW36678   4.003   7.725   6.259 -0.2777  0.7054  0.7436
11746SOL    HW136679   4.049   7.658   6.310 -0.1285  0.8399  0.7837
11746SOL    HW236680   3.998   7.688   6.171  1.0900  1.2597  0.4145
11747SOL     OW36681   3.003   3.327   7.476  0.1552 -0.6240  0.7073
11747SOL    HW136682   3.008   3.248   7.422  1.0331 -1.2852  1.7098
11747SOL    HW236683   2.930   3.311   7.535 -2.7656  1.3232 -2.0484
11748SOL     OW36684   1.488   2.719   1.731  0.1955  0.1743  0.3793
11748SOL    HW136685   1.534   2.784   1.678  1.5158 -1.5085 -0.6475
11748SOL    HW236686   1.529   2.723   1.817 -0.8502  1.7961  0.8369
11749SOL     OW36687   3.801   0.122  12.167 -0.0789  0.2089  0.3825
11749SOL    HW136688   3.796   0.157  12.256 -0.8086  0.4137  0.2618
11749SOL    HW236689   3.792   0.198  12.110  0.2699  0.0637  0.1255
11750SOL     OW36690   6.445   4.769   8.795  0.6051  0.3660  0.1215
11750SOL    HW136691   6.453   4.836   8.862  1.4292 -0.2040  0.6135
11750SOL    HW236692   6.535   4.744   8.775  0.4390  1.2435 -1.9513
11751SOL     OW36693   5.785   6.479   6.642 -0.1331 -0.7502 -0.2809
11751SOL    HW136694   5.797   6.558   6.589  0.1401 -0.8687 -0.3923
11751SOL    HW236695   5.842   6.492   6.718 -2.0856  0.3984  1.0895
11752SOL     OW36696   1.743   3.104   8.855  0.1675  0.0065  0.4989
11752SOL    HW136697   1.768   3.195   8.838 -1.1637  0.2983 -0.0212
11752SOL    HW236698   1.771   3.057   8.776 -1.7504  0.5212 -0.5570
11753SOL     OW36699   7.034   0.848   4.565  0.4482  0.0619 -0.7913
11753SOL    HW136700   7.059   0.759   4.589  1.3769  0.3649 -0.6190
11753SOL    HW236701   7.041   0.898   4.646  0.5467  0.4286 -1.0244
11754SOL     OW36702   6.124   0.597   8.893  0.9196 -0.2062  0.3140
11754SOL    HW136703   6.148   0.552   8.812 -2.4585  0.1212 -1.0206
11754SOL    HW236704   6.068   0.536   8.940  0.5457  0.6517  1.0328
11755SOL     OW36705   6.785   4.922   4.056 -0.1026  0.1629  0.3640
11755SOL    HW136706   6.694   4.914   4.026 -0.5635 -0.2096  1.8073
11755SOL    HW236707   6.829   4.845   4.019 -0.2940  0.4876 -0.5675
11756SOL     OW36708   2.346   7.412   2.621 -0.0685 -0.0075  0.1779
11756SOL    HW136709   2.277   7.347   2.635 -1.4925  1.2944 -0.5257
11756SOL    HW236710   2.422   7.375   2.665 -0.5460 -2.5676 -0.9664
11757SOL     OW36711   0.346   1.571   7.766  0.1270 -0.2320 -0.2297
11757SOL    HW136712   0.335   1.501   7.831 -0.3385  0.7408  0.7876
11757SOL    HW236713   0.284   1.550   7.697 -0.8937 -0.2015  0.6475
11758SOL     OW36714   1.268   1.019   2.034 -0.1519  0.0721  0.0783
11758SOL    HW136715   1.204   1.080   2.070  0.4041  0.2229  0.8528
11758SOL    HW236716   1.226   0.983   1.956 -1.2507  0.0198  0.6691
11759SOL     OW36717   5.198   6.161   6.823 -0.0558  0.0195 -0.2413
11759SOL    HW136718   5.169   6.136   6.910 -0.9918 -1.3859 -0.9331
11759SOL    HW236719   5.254   6.238   6.838  0.2572 -0.5272  1.6258
11760SOL     OW36720   5.332   0.062   9.410 -0.1251 -0.3179 -0.1548
11760SOL    HW136721   5.350   0.120   9.484  1.1304 -0.6657 -0.1579
11760SOL    HW236722   5.419   0.033   9.381 -0.7151 -2.5970  0.1690
11761SOL     OW36723   7.728   3.144   3.098 -0.1460 -0.7313 -0.0192
11761SOL    HW136724   7.747   3.235   3.122 -2.3211 -0.4882  0.9758
11761SOL    HW236725   7.687   3.107   3.175 -0.8973 -2.0587 -1.0179
11762SOL     OW36726   1.733   0.696   1.538 -0.1994  0.3797 -0.2720
11762SOL    HW136727   1.786   0.749   1.597  0.3053  0.8247 -1.1078
11762SOL    HW236728   1.787   0.619   1.520 -0.2988  0.3059 -0.2562
11763SOL     OW36729   7.728   7.089  11.201  0.1107  0.4529  0.0499
11763SOL    HW136730   7.637   7.117  11.202 -0.0993 -0.1547 -0.6489
11763SOL    HW236731   7.728   7.004  11.245  0.6377  1.2258  1.5974
11764SOL     OW36732   2.521   0.755   6.548  0.7083  0.0051 -0.5827
11764SOL    HW136733   2.514   0.682   6.487 -0.1417  0.5402 -1.1440
11764SOL    HW236734   2.541   0.714   6.632  0.1253 -0.8898 -0.8617
11765SOL     OW36735   6.407   2.813   7.691 -0.0743 -0.2312 -0.5143
11765SOL    HW136736   6.347   2.778   7.757 -3.5377  3.4855 -1.2785
11765SOL    HW236737   6.400   2.753   7.617 -1.8202 -0.6918 -0.0224
11766SOL     OW36738   1.703   3.772  11.627 -0.8201  0.4429  0.2339
11766SOL    HW136739   1.763   3.845  11.640  1.2176 -1.0079 -0.5257
11766SOL    HW236740   1.660   3.760  11.712  0.7832  0.8507  1.1216
11767SOL     OW36741   0.190   5.541   0.714 -0.4894 -0.0136 -0.5449
11767SOL    HW136742   0.240   5.543   0.796 -0.8291 -0.1820 -0.3326
11767SOL    HW236743   0.226   5.466   0.666 -0.1088  0.2444 -0.6670
11768SOL     OW36744   4.659   6.222   8.385  0.3475  0.1559 -0.3211
11768SOL    HW136745   4.602   6.182   8.451 -0.0438  0.8440 -0.2290
11768SOL    HW236746   4.708   6.149   8.348 -0.6210 -0.4690 -0.4273
11769SOL     OW36747   6.218   5.026   4.822  0.1025  0.2232 -0.1103
11769SOL    HW136748   6.225   5.086   4.748 -3.1352  0.2064 -0.5952
11769SOL    HW236749   6.186   5.081   4.894  0.7332 -0.2327  0.5217
11770SOL     OW36750   3.366   0.608   0.930 -0.2775  0.3491  0.2987
11770SOL    HW136751   3.396   0.522   0.900 -1.6857  0.1085 -0.5376
11770SOL    HW236752   3.275   0.593   0.956 -0.0775  1.2893  1.5660
11771SOL     OW36753   3.260   1.939   3.799  0.2278  0.1083  0.2335
11771SOL    HW136754   3.320   1.865   3.808  0.1603  0.0379  0.1157
11771SOL    HW236755   3.263   1.984   3.883  1.1011  0.6034 -0.0530
11772SOL     OW36756   1.483   4.008   7.345  0.0986  0.0603  0.2597
11772SOL    HW136757   1.442   3.950   7.409 -2.0051  0.4200 -0.6610
11772SOL    HW236758   1.465   4.096   7.377 -3.1172  0.3413 -1.8768
11773SOL     OW36759   3.044   3.868   2.091 -0.1801 -0.8098  0.1901
11773SOL    HW136760   3.076   3.885   2.002  0.4381 -0.2845  0.5020
11773SOL    HW236761   3.085   3.786   2.116  1.5471  0.1938  0.8411
11774SOL     OW36762   1.223   1.483  10.830 -0.4925 -0.3158 -0.4421
11774SOL    HW136763   1.133   1.452  10.818 -0.5981 -0.7607  1.3264
11774SOL    HW236764   1.229   1.505  10.923  0.9923  0.5033 -0.7019
11775SOL     OW36765   6.430   5.628   2.735 -0.4275 -0.1731 -0.1190
11775SOL    HW136766   6.429   5.715   2.695  1.6758  0.0413  0.2009
11775SOL    HW236767   6.404   5.644   2.826 -1.8084 -0.1717 -0.4881
11776SOL     OW36768   6.484   2.086   5.211  0.0493 -0.0222 -0.4396
11776SOL    HW136769   6.469   2.020   5.143 -0.1841 -0.6531  0.2062
11776SOL    HW236770   6.551   2.047   5.267  0.3560  0.5609 -0.4006
11777SOL     OW36771   5.694   0.230   5.380  0.3887 -0.2397 -0.2772
11777SOL    HW136772   5.606   0.256   5.408  0.5679 -0.8273  0.8729
11777SOL    HW236773   5.712   0.286   5.304 -0.3715  0.9614  0.4018
11778SOL     OW36774   4.594   7.116   6.591  0.0498  0.2534 -0.2926
11778SOL    HW136775   4.545   7.162   6.659  0.1455 -2.8210  2.1049
11778SOL    HW236776   4.530   7.097   6.523 -0.3369  2.3894 -0.5702
11779SOL     OW36777   4.296   2.710   6.891  0.3431  0.6684  0.2399
11779SOL    HW136778   4.352   2.632   6.895  0.4688  0.8035  1.1564
11779SOL    HW236779   4.250   2.711   6.974 -0.4860  0.9761 -0.2089
11780SOL     OW36780   6.826   0.014   7.836 -0.1233 -0.5375  0.4023
11780SOL    HW136781   6.836   0.070   7.759 -0.1305  1.5170  1.8198
11780SOL    HW236782   6.886  -0.059   7.821  0.4438  0.2214 -1.1815
11781SOL     OW36783   3.844   0.140   3.562  0.5689 -0.1915 -0.5402
11781SOL    HW136784   3.810   0.168   3.647  0.7920 -1.0499 -0.1547
11781SOL    HW236785   3.914   0.078   3.584  1.0147  0.0188 -1.3435
11782SOL     OW36786   5.380   1.317   4.857 -0.2954  0.0753 -0.0090
11782SOL    HW136787   5.292   1.330   4.824 -0.2558  2.3994  0.6150
11782SOL    HW236788   5.408   1.403   4.887  1.4196 -0.9791  1.7325
11783SOL     OW36789   1.117   2.421   8.418  0.0451  0.1159  0.5088
11783SOL    HW136790   1.114   2.396   8.510 -1.4066 -0.3340  0.3566
11783SOL    HW236791   1.033   2.393   8.382  0.1701  1.2070 -0.7198
11784SOL     OW36792   0.357   5.183   7.873 -0.2203 -0.0315 -0.4405
11784SOL    HW136793   0.336   5.159   7.963 -1.0043 -0.5279 -0.7468
11784SOL    HW236794   0.437   5.235   7.880  0.4416 -1.1219  0.4173
11785SOL     OW36795   5.654   1.845   9.936 -0.7881 -0.1553  0.3652
11785SOL    HW136796   5.690   1.824   9.849 -2.2339 -1.8844  0.1219
11785SOL    HW236797   5.696   1.927   9.960  1.3947 -0.8076 -0.9526
11786SOL     OW36798   5.056   6.830   6.066 -0.0611 -0.2702  0.8391
11786SOL    HW136799   4.977   6.811   6.015  1.2712 -0.1223 -1.3709
11786SOL    HW236800   5.036   6.912   6.112 -0.5720  0.7475 -1.1057
11787SOL     OW36801   4.829   6.755  12.037 -0.1502 -0.2870  0.2049
11787SOL    HW136802   4.865   6.813  12.104 -1.7798  0.8424  0.1630
11787SOL    HW236803   4.766   6.809  11.990 -1.1805 -1.8835 -0.3348
11788SOL     OW36804   5.410   7.745   5.357  0.7759  0.4689 -0.1231
11788SOL    HW136805   5.400   7.657   5.393  0.3462  0.8107  0.6263
11788SOL    HW236806   5.421   7.732   5.263 -2.4500 -0.2311 -0.5022
11789SOL     OW36807   1.388   7.847   2.850 -0.1839  0.5156  0.1608
11789SOL    HW136808   1.340   7.785   2.794 -2.2048  0.1682  2.1164
11789SOL    HW236809   1.480   7.820   2.841 -0.6730 -0.8837 -1.2944
11790SOL     OW36810   2.512   3.507   3.916  0.0604  0.0216 -0.2042
11790SOL    HW136811   2.479   3.589   3.879 -0.0011  0.2980  0.4345
11790SOL    HW236812   2.511   3.522   4.011 -0.0940 -0.7708 -0.0708
11791SOL     OW36813   3.395   6.802   2.611  0.0762 -0.2080  0.3103
11791SOL    HW136814   3.360   6.826   2.697 -1.3233 -0.9527 -0.0146
11791SOL    HW236815   3.478   6.758   2.629  0.0340  0.0815  1.2424
11792SOL     OW36816   4.890   1.998   4.384  0.2812 -0.3462 -0.2036
11792SOL    HW136817   4.953   2.067   4.366 -0.0899 -0.3695 -1.8026
11792SOL    HW236818   4.854   2.020   4.470  0.8563  0.9078 -0.2589
11793SOL     OW36819   2.161   0.418   3.425 -0.2309 -0.0044  0.6793
11793SOL    HW136820   2.144   0.324   3.422  0.7572 -0.2672  1.9866
11793SOL    HW236821   2.079   0.456   3.455 -1.1811 -0.2305 -1.4903
11794SOL     OW36822   7.270   4.088   2.547  0.5605  0.1927 -0.5680
11794SOL    HW136823   7.271   4.141   2.468  2.8218  0.8090 -0.1869
11794SOL    HW236824   7.271   4.152   2.619 -1.5079 -0.3514  0.0318
11795SOL     OW36825   7.535   7.751   4.103 -0.7121  0.8716 -0.5546
11795SOL    HW136826   7.502   7.828   4.056 -1.0332  1.6815  0.9239
11795SOL    HW236827   7.458   7.696   4.116 -0.7094  0.8659 -0.5644
11796SOL     OW36828   0.981   4.304   2.534 -0.1783  1.0453 -0.4364
11796SOL    HW136829   0.898   4.289   2.580 -0.3711  0.2337 -1.0330
11796SOL    HW236830   1.043   4.326   2.604 -0.5122  0.0278  0.1970
11797SOL     OW36831   2.575   0.039   8.957 -0.1377 -0.7340 -0.4638
11797SOL    HW136832   2.536  -0.048   8.963 -1.4136 -0.3465 -2.2933
11797SOL    HW236833   2.620   0.039   8.872  3.1107 -0.8067  1.1121
11798SOL     OW36834   1.208   7.458   6.294  0.2679 -0.0469 -0.3717
11798SOL    HW136835   1.248   7.395   6.353  1.5569  0.8415 -0.2711
11798SOL    HW236836   1.192   7.536   6.348 -0.0136  0.2097 -0.8154
11799SOL     OW36837   2.819   0.249   1.333 -0.7851 -0.2626 -0.3835
11799SOL    HW136838   2.796   0.218   1.246  0.1051 -0.2628 -0.6258
11799SOL    HW236839   2.791   0.340   1.335 -0.8100 -0.2651 -0.6671
11800SOL     OW36840   1.451   0.076   0.031 -0.0988  0.2276  0.5920
11800SOL    HW136841   1.448  -0.020   0.037 -1.2323  0.2490  0.7542
11800SOL    HW236842   1.358   0.102   0.031  0.1944  1.3124  0.3634
11801SOL     OW36843   5.592   7.527   7.062 -0.3633  0.1571  0.0159
11801SOL    HW136844   5.655   7.581   7.013 -0.1222 -0.9059 -0.8803
11801SOL    HW236845   5.537   7.591   7.107  0.3028  1.1455 -0.5176
11802SOL     OW36846   4.371   2.187   6.523 -0.5796 -0.1786 -0.1700
11802SOL    HW136847   4.393   2.202   6.431 -0.3591  0.6275  0.0108
11802SOL    HW236848   4.407   2.100   6.542  0.5250  0.1884 -0.4889
11803SOL     OW36849   3.518   1.472   5.531 -0.9343 -0.4104 -0.1793
11803SOL    HW136850   3.560   1.389   5.554  0.4939 -0.0007 -1.1294
11803SOL    HW236851   3.497   1.513   5.615 -0.2149 -1.0391  0.3225
11804SOL     OW36852   5.168   3.699   8.031 -0.3597  0.7904 -0.4475
11804SOL    HW136853   5.174   3.673   7.939 -0.7800 -0.5278 -0.1251
11804SOL    HW236854   5.205   3.625   8.079  0.9020  1.9439  0.4009
11805SOL     OW36855   2.242   6.911   5.963  0.1346 -0.3521 -0.1094
11805SOL    HW136856   2.227   6.970   6.037 -1.0886 -1.6052  0.6846
11805SOL    HW236857   2.333   6.884   5.971  0.6801  1.2771 -0.4085
11806SOL     OW36858   6.862   1.837   4.618 -0.0867  0.3473  0.0414
11806SOL    HW136859   6.816   1.816   4.536  0.4714  0.4606 -0.3100
11806SOL    HW236860   6.797   1.824   4.686 -0.2662 -0.8080 -0.3249
11807SOL     OW36861   2.762   1.296  11.592  0.3179  0.6432 -0.1870
11807SOL    HW136862   2.824   1.224  11.608 -1.9897 -1.2601  0.8095
11807SOL    HW236863   2.807   1.374  11.624  2.4698 -0.5252 -0.1797
11808SOL     OW36864   1.973   6.236   2.040 -0.4398  0.1796 -0.7082
11808SOL    HW136865   1.911   6.309   2.039  1.1138  1.5563 -0.5069
11808SOL    HW236866   1.953   6.187   1.960 -0.8020  1.4861 -1.4538
11809SOL     OW36867   2.878   3.261   0.016  0.0328  0.5183  0.1097
11809SOL    HW136868   2.786   3.263  -0.012  0.0404 -0.3626 -0.0261
11809SOL    HW236869   2.893   3.169   0.039  1.3442  0.2962 -1.4584
11810SOL     OW36870   1.027   5.938   8.060  0.2102 -0.5348  0.1280
11810SOL    HW136871   1.040   5.918   7.967 -1.1063 -0.1535 -0.1594
11810SOL    HW236872   1.110   5.978   8.087  0.9827 -1.5869 -0.6028
11811SOL     OW36873   6.974   2.419   2.243 -0.1791  0.5190 -0.1847
11811SOL    HW136874   6.939   2.401   2.155 -1.6237 -1.4887  0.7240
11811SOL    HW236875   7.051   2.363   2.250 -1.0665 -0.6638  0.4117
11812SOL     OW36876   7.514   5.745   0.277  0.0971 -0.0602  0.7493
11812SOL    HW136877   7.485   5.800   0.204  0.8300  0.6713  0.9869
11812SOL    HW236878   7.468   5.662   0.265 -1.0888  0.6112  0.3972
11813SOL     OW36879   0.031   3.436   2.243 -0.2521  0.3815 -0.2320
11813SOL    HW136880   0.089   3.359   2.250  1.2026  1.3461 -1.0675
11813SOL    HW236881   0.086   3.509   2.272 -2.0391  0.9877  1.9484
11814SOL     OW36882   6.519   1.966  11.832 -0.7313 -0.3655 -0.4441
11814SOL    HW136883   6.433   1.934  11.806 -0.7725  0.3295 -1.1900
11814SOL    HW236884   6.531   1.934  11.922 -1.4885 -1.0047 -0.5664
11815SOL     OW36885   7.431   6.512   8.040  0.7199  0.1843 -0.3715
11815SOL    HW136886   7.348   6.482   8.077  1.0718  1.0761  1.2618
11815SOL    HW236887   7.497   6.469   8.094  1.2998  0.4355 -0.8719
11816SOL     OW36888   6.486   1.179  10.071  0.4958  0.1403  0.0222
11816SOL    HW136889   6.558   1.239  10.092 -0.0410  1.1846 -1.0123
11816SOL    HW236890   6.503   1.151   9.981 -0.4606  0.5117 -0.2835
11817SOL     OW36891   4.594   5.723   3.745  0.0834  0.0453  0.1616
11817SOL    HW136892   4.567   5.733   3.654  0.3288 -0.2428  0.0557
11817SOL    HW236893   4.513   5.703   3.792 -0.0126 -0.0151 -0.0273
11818SOL     OW36894   0.759   4.882   9.045  0.6030 -0.4827 -0.6923
11818SOL    HW136895   0.816   4.933   9.102  1.6524 -1.3886 -0.8948
11818SOL    HW236896   0.797   4.891   8.957  0.7021 -1.4249 -0.7648
11819SOL     OW36897   6.524   4.799   1.313  0.0831 -0.2314  0.2551
11819SOL    HW136898   6.519   4.703   1.312  0.3602 -0.2451 -0.3879
11819SOL    HW236899   6.514   4.824   1.221 -1.2102  0.4288  0.5446
11820SOL     OW36900   0.891   1.862   0.212 -0.4182  0.2276  0.2326
11820SOL    HW136901   0.911   1.952   0.183 -0.1579  0.3842  0.8821
11820SOL    HW236902   0.850   1.821   0.136  2.2518 -0.0690 -1.1448
11821SOL     OW36903   0.811   0.937   3.261 -0.5357 -0.4231 -0.3554
11821SOL    HW136904   0.750   0.923   3.188 -0.6942 -2.9464  0.1676
11821SOL    HW236905   0.760   0.985   3.326 -0.6429  1.1353 -1.5266
11822SOL     OW36906   4.123   0.832   9.862  0.0010 -0.2793 -0.3619
11822SOL    HW136907   4.127   0.738   9.843 -4.3081 -1.0062  1.1973
11822SOL    HW236908   4.122   0.837   9.958 -0.4372  1.2699 -0.4206
11823SOL     OW36909   7.466   6.360   0.485 -0.4322 -0.1619  0.3298
11823SOL    HW136910   7.471   6.386   0.393 -1.5135 -0.2063  0.2366
11823SOL    HW236911   7.376   6.327   0.495 -0.5863  0.5727  1.5839
11824SOL     OW36912   6.913   3.983   4.687  0.2573  0.1594 -0.2043
11824SOL    HW136913   6.824   3.976   4.721  0.3072 -2.1239 -0.3287
11824SOL    HW236914   6.914   4.065   4.638 -0.7662  1.9157  2.4961
11825SOL     OW36915   0.986   2.889   3.342 -0.0823 -0.9387 -0.0585
11825SOL    HW136916   0.968   2.842   3.423 -0.3838 -0.1697  0.3328
11825SOL    HW236917   1.080   2.907   3.345 -0.2802  0.0693  0.6789
11826SOL     OW36918   7.812   1.344   2.064 -0.2750  0.2919 -0.2329
11826SOL    HW136919   7.859   1.349   1.981  0.1681 -0.9809 -0.0779
11826SOL    HW236920   7.871   1.382   2.128 -0.0763  0.0828 -0.2912
11827SOL     OW36921   2.162   3.858   9.115 -0.0308  0.5488  0.5397
11827SOL    HW136922   2.078   3.886   9.079 -0.6310 -2.6014 -0.8009
11827SOL    HW236923   2.146   3.847   9.209 -1.5102 -1.0492  0.1474
11828SOL     OW36924   5.877   5.819   1.236 -0.1508 -0.1723  0.4333
11828SOL    HW136925   5.879   5.874   1.158 -1.3651  0.0331  0.5345
11828SOL    HW236926   5.925   5.870   1.302  0.7292 -0.2726 -0.1208
11829SOL     OW36927   0.028   4.834   3.408  0.3363  0.1126  0.7434
11829SOL    HW136928   0.119   4.806   3.420  0.7610 -0.2702 -2.5777
11829SOL    HW236929  -0.020   4.752   3.392  0.4009  0.6089 -2.4999
11830SOL     OW36930   3.591   2.780   9.909  1.0969 -0.4349  0.0016
11830SOL    HW136931   3.621   2.745   9.825  2.7203  0.8383  0.0092
11830SOL    HW236932   3.533   2.853   9.884  1.6115 -0.0309 -0.0191
11831SOL     OW36933   4.719   1.392  10.991  0.1675 -0.2262 -0.0269
11831SOL    HW136934   4.642   1.440  11.019  0.2583 -0.1265  0.0574
11831SOL    HW236935   4.764   1.371  11.073  0.0599 -0.5676 -0.0549
11832SOL     OW36936   7.657   7.273  10.936  0.3477  0.3048 -0.5529
11832SOL    HW136937   7.611   7.233  11.010 -0.4675  1.4299 -0.4296
11832SOL    HW236938   7.732   7.215  10.921 -1.3180 -1.8572 -1.0587
11833SOL     OW36939   6.731   4.871   3.202  0.4589  0.1175  0.5488
11833SOL    HW136940   6.674   4.802   3.168 -0.0119  0.0865  1.3880
11833SOL    HW236941   6.820   4.836   3.189  0.3962  0.6811 -1.8839
11834SOL     OW36942   0.267   4.748   3.142 -0.4224 -0.5082  0.3453
11834SOL    HW136943   0.359   4.739   3.115 -0.8003 -1.8899 -0.5276
11834SOL    HW236944   0.273   4.783   3.231  0.9183  0.4773 -0.0903
11835SOL     OW36945   3.239   3.498   8.988  0.3910 -0.3381 -0.1003
11835SOL    HW136946   3.153   3.538   8.983  0.6461  0.4954  1.5143
11835SOL    HW236947   3.222   3.407   9.011 -0.1072 -0.7727 -1.9694
11836SOL     OW36948   0.967   3.154   0.516 -0.2540  0.5149 -0.1878
11836SOL    HW136949   0.920   3.166   0.598 -0.7713  0.0803 -0.4089
11836SOL    HW236950   0.904   3.108   0.459  0.4668 -0.1727 -0.4583
11837SOL     OW36951   2.656   6.813   3.605  0.0073 -0.2051 -0.0043
11837SOL    HW136952   2.705   6.892   3.583 -1.4153  0.4529 -0.9113
11837SOL    HW236953   2.691   6.746   3.546  1.4832 -0.3970  1.0240
11838SOL     OW36954   6.116   3.322   3.601 -0.5206  0.1455  0.2249
11838SOL    HW136955   6.058   3.262   3.647  1.4947  0.1348  3.0438
11838SOL    HW236956   6.065   3.402   3.591 -1.5716 -0.3889  1.0833
11839SOL     OW36957   0.937   7.087   6.924 -0.0115 -0.5318 -0.5378
11839SOL    HW136958   0.935   7.183   6.926 -0.4310 -0.5416 -0.4518
11839SOL    HW236959   1.030   7.065   6.917  0.1321 -0.1357  0.1010
11840SOL     OW36960   6.036   0.229   9.314 -0.2931  0.5561  0.2693
11840SOL    HW136961   6.119   0.252   9.273 -0.3937  0.7794  0.1887
11840SOL    HW236962   5.997   0.164   9.255  0.4830 -0.6555  1.0451
11841SOL     OW36963   3.941   0.363   1.258 -0.5011 -0.0383  0.0078
11841SOL    HW136964   3.956   0.433   1.194  1.9382  0.1534  0.6621
11841SOL    HW236965   3.982   0.396   1.338 -0.9962 -1.4404  0.8631
11842SOL     OW36966   1.804   2.365   7.175 -1.1358 -0.3915 -0.2856
11842SOL    HW136967   1.748   2.408   7.110 -1.2609  0.2098  0.1984
11842SOL    HW236968   1.805   2.427   7.249 -0.9722 -1.0367  0.2632
11843SOL     OW36969   2.309   1.048   1.453 -0.1901  0.2017  0.0222
11843SOL    HW136970   2.400   1.070   1.473 -0.9061  1.1054  2.7303
11843SOL    HW236971   2.267   1.133   1.437 -0.5437 -0.2314 -1.5535
11844SOL     OW36972   7.027   5.612   0.903 -0.1116 -0.1880 -0.1225
11844SOL    HW136973   7.082   5.584   0.976 -0.4462  0.3779  0.3557
11844SOL    HW236974   7.005   5.703   0.924 -0.3323 -0.0696 -0.8566
11845SOL     OW36975   6.837   4.186   8.501  0.0202 -0.9485  0.3682
11845SOL    HW136976   6.762   4.246   8.499  0.3519 -0.5370  0.1220
11845SOL    HW236977   6.827   4.133   8.422  0.0452 -0.8185  0.2763
11846SOL     OW36978   5.839   3.949   7.176 -0.1855  0.1305  0.3796
11846SOL    HW136979   5.831   3.904   7.260 -0.3041 -1.0635 -0.2545
11846SOL    HW236980   5.933   3.956   7.162 -0.0861  2.3841  1.6453
11847SOL     OW36981   6.478   4.649   4.082 -0.6596 -0.2372 -0.0227
11847SOL    HW136982   6.564   4.651   4.039 -0.0593 -0.0342  1.1397
11847SOL    HW236983   6.421   4.605   4.019  0.2073 -0.0575 -0.9727
11848SOL     OW36984   5.502   6.552   5.109  0.0149  0.1517  0.4344
11848SOL    HW136985   5.560   6.478   5.090  0.3626  0.2264  1.1848
11848SOL    HW236986   5.499   6.557   5.205  0.9235  1.8187  0.4196
11849SOL     OW36987   7.098   6.907  11.702 -0.4677 -0.2696 -0.7971
11849SOL    HW136988   7.016   6.943  11.736 -0.5489 -1.6550  0.5786
11849SOL    HW236989   7.091   6.813  11.717  0.2865 -0.7579 -3.0832
11850SOL     OW36990   4.374   7.317   8.682  0.3199 -0.3464 -0.1014
11850SOL    HW136991   4.450   7.337   8.629 -0.2749  1.7437 -0.2545
11850SOL    HW236992   4.379   7.223   8.697  2.2859 -0.4359 -1.0582
11851SOL     OW36993   6.679   5.478   6.539 -0.1226 -0.3948  0.2565
11851SOL    HW136994   6.747   5.412   6.553 -0.3392 -1.0503 -1.5632
11851SOL    HW236995   6.597   5.429   6.540 -0.4065  0.0846  0.4574
11852SOL     OW36996   2.955   5.392   7.241  0.0409  0.2703  0.2520
11852SOL    HW136997   3.001   5.443   7.175 -0.1683  0.1348 -0.0019
11852SOL    HW236998   3.022   5.333   7.277 -0.3830 -1.5676 -1.7328
11853SOL     OW36999   7.182   5.115   2.869  0.3072 -0.4593 -0.2119
11853SOL    HW137000   7.234   5.145   2.944 -0.4247 -0.7816  0.4362
11853SOL    HW237001   7.242   5.061   2.819  0.6440 -0.7210  0.4576
11854SOL     OW37002   7.526   3.505  12.120  0.4717  0.6633  0.5403
11854SOL    HW137003   7.573   3.463  12.048 -0.5487  0.4874 -0.0434
11854SOL    HW237004   7.533   3.443  12.193 -0.9152 -0.5053 -0.2765
11855SOL     OW37005   5.106   5.628   8.322  0.2013 -0.2340  0.1937
11855SOL    HW137006   5.052   5.681   8.264  1.0914 -0.1336 -0.5646
11855SOL    HW237007   5.113   5.680   8.402 -2.8417 -1.3250  1.3164
11856SOL     OW37008   0.364   1.548  10.485  0.1710 -0.2992 -0.3557
11856SOL    HW137009   0.351   1.566  10.392  0.5387  1.2049 -0.1481
11856SOL    HW237010   0.390   1.456  10.488 -0.6072 -0.5871 -1.6547
11857SOL     OW37011   1.455   7.437   7.540  0.1489 -0.2939  0.1404
11857SOL    HW137012   1.389   7.506   7.545 -0.3264 -0.7238 -0.0394
11857SOL    HW237013   1.539   7.482   7.550 -0.0675  0.4984 -1.3755
11858SOL     OW37014   6.794   6.065   4.877 -0.7298  0.5257  0.1673
11858SOL    HW137015   6.736   6.064   4.801 -0.5213  0.8751  0.0058
11858SOL    HW237016   6.870   6.115   4.849 -1.5058  2.4173  1.2170
11859SOL     OW37017   7.520   2.837  10.525 -0.1579 -0.4073 -0.1312
11859SOL    HW137018   7.518   2.836  10.429  0.2745 -1.8049 -0.1505
11859SOL    HW237019   7.439   2.792  10.550 -0.6768  0.6747  0.1916
11860SOL     OW37020   2.680   7.618   1.281  0.1382 -0.3608  0.0301
11860SOL    HW137021   2.756   7.613   1.224 -0.4767 -0.6555 -0.7756
11860SOL    HW237022   2.605   7.605   1.223 -0.5784  0.6618  0.6914
11861SOL     OW37023   3.976   4.335  10.291 -0.1585 -0.1097  0.3902
11861SOL    HW137024   3.898   4.345  10.345 -0.3976 -0.5716  0.1331
11861SOL    HW237025   3.943   4.319  10.203  0.2197  1.5227 -0.0919
11862SOL     OW37026   3.374   7.524   7.854  0.3446  0.2930 -0.0313
11862SOL    HW137027   3.331   7.460   7.911 -1.0403  1.3845  0.1862
11862SOL    HW237028   3.344   7.609   7.886 -0.1608  0.9581 -2.1317
11863SOL     OW37029   2.131   0.205   5.475 -0.2974 -0.1687 -0.3708
11863SOL    HW137030   2.208   0.220   5.530  0.0524 -2.0909 -0.2348
11863SOL    HW237031   2.161   0.224   5.386  0.2981 -0.6752 -0.2913
11864SOL     OW37032   2.151   6.376  11.736  0.0683  0.2426 -0.3646
11864SOL    HW137033   2.078   6.326  11.772 -0.0507  2.3375  2.7362
11864SOL    HW237034   2.229   6.331  11.767  0.0003  0.5164  0.2162
11865SOL     OW37035   6.060   0.439   2.024  0.7605 -0.0670 -0.4285
11865SOL    HW137036   6.108   0.501   1.968 -0.1055  1.1206  0.0874
11865SOL    HW237037   6.086   0.462   2.113  1.2798 -1.2053 -0.2771
11866SOL     OW37038   1.301   2.636   1.098 -0.2283  0.0881  0.1715
11866SOL    HW137039   1.237   2.669   1.161 -0.4049 -0.2449  0.1667
11866SOL    HW237040   1.366   2.589   1.150  0.5863  1.2927  0.2914
11867SOL     OW37041   4.046   1.019   7.188 -0.5025  0.0754  0.2495
11867SOL    HW137042   4.063   1.068   7.269  1.6411 -0.6534  0.2966
11867SOL    HW237043   4.035   0.929   7.217  0.8646 -0.2828 -0.2980
11868SOL     OW37044   1.609   4.427   1.847  0.4572  0.0073  0.2538
11868SOL    HW137045   1.663   4.489   1.895  2.0632 -0.3343 -1.0371
11868SOL    HW237046   1.541   4.481   1.806  1.1748  0.7779  0.0533
11869SOL     OW37047   5.782   1.269   4.918  0.0917 -0.0308  0.1528
11869SOL    HW137048   5.779   1.180   4.882 -1.5472  0.7102 -1.7055
11869SOL    HW237049   5.709   1.314   4.876  0.3375  1.9650  1.7394
11870SOL     OW37050   2.965   4.845   9.791  0.4420 -0.3210 -0.1023
11870SOL    HW137051   2.918   4.776   9.839 -0.7564  0.4905 -0.0495
11870SOL    HW237052   2.984   4.806   9.706 -0.0638 -0.7885 -0.0099
11871SOL     OW37053   1.467   5.225   9.732 -0.2606  0.2189  0.1824
11871SOL    HW137054   1.373   5.224   9.717 -0.3495 -2.2477  0.5188
11871SOL    HW237055   1.492   5.317   9.723 -2.9288  1.1865  1.6121
11872SOL     OW37056   3.021   5.609   0.572  0.3126  0.1608 -0.5341
11872SOL    HW137057   2.945   5.562   0.536  0.0297  0.6753 -0.6267
11872SOL    HW237058   3.071   5.543   0.619 -0.5158 -0.0678  0.0370
11873SOL     OW37059   1.878   2.613   3.864 -0.2156  0.2362  0.1096
11873SOL    HW137060   1.812   2.600   3.932  0.9153  0.6783  1.3284
11873SOL    HW237061   1.958   2.573   3.899  0.3788  0.3883 -1.0056
11874SOL     OW37062   3.491   1.600   2.324  0.1463  0.2053  0.2053
11874SOL    HW137063   3.559   1.617   2.259  1.6434 -0.5620  1.4976
11874SOL    HW237064   3.439   1.528   2.287  0.6289  0.1581 -0.3884
11875SOL     OW37065   7.523   3.532   7.320 -0.0030  0.1587 -0.3813
11875SOL    HW137066   7.563   3.445   7.329 -0.0615  0.0127 -1.4498
11875SOL    HW237067   7.444   3.517   7.268 -0.1927  0.8034 -0.2848
11876SOL     OW37068   0.666   1.015   5.281  0.1004 -0.4448 -0.2774
11876SOL    HW137069   0.625   1.067   5.350  0.4327 -1.5336  0.7775
11876SOL    HW237070   0.760   1.031   5.291  0.0642  0.7808 -1.6472
11877SOL     OW37071   0.999   1.454   3.642 -0.1584 -0.0176 -0.3248
11877SOL    HW137072   1.073   1.400   3.616 -0.3729 -0.3215 -0.3123
11877SOL    HW237073   0.937   1.393   3.682 -0.6121  0.1578 -0.7452
11878SOL     OW37074   0.133   2.879   8.332 -0.0295 -0.0438  0.0180
11878SOL    HW137075   0.220   2.918   8.328 -0.5633  1.2648  0.4554
11878SOL    HW237076   0.076   2.944   8.291 -1.0998  0.0770  1.6019
11879SOL     OW37077   6.838   6.845   0.305 -0.1876  0.0043 -0.1694
11879SOL    HW137078   6.904   6.894   0.256 -0.7939  0.4352 -0.5846
11879SOL    HW237079   6.761   6.845   0.247 -0.6631 -0.1718  0.4493
11880SOL     OW37080   0.620   7.779   2.361 -0.3214 -0.2110 -0.0950
11880SOL    HW137081   0.623   7.760   2.267 -1.8167 -0.6266 -0.0908
11880SOL    HW237082   0.540   7.737   2.391 -0.2827  0.5993  1.2247
11881SOL     OW37083   1.409   1.688   7.850  0.2871 -0.0177 -0.2728
11881SOL    HW137084   1.338   1.724   7.904  0.3078  0.6564 -0.6821
11881SOL    HW237085   1.485   1.741   7.873  0.2858  0.3046 -0.9819
11882SOL     OW37086   0.814   5.356   0.386  0.6174 -0.5164 -1.0827
11882SOL    HW137087   0.771   5.436   0.418 -0.0400 -0.9584 -0.8444
11882SOL    HW237088   0.744   5.291   0.383  1.0981 -1.0216 -1.5166
11883SOL     OW37089   7.823   0.649   2.312 -0.6727  0.0157 -0.0377
11883SOL    HW137090   7.839   0.654   2.217  1.1976 -1.7621  0.1174
11883SOL    HW237091   7.830   0.556   2.333  0.0520  0.4863  2.0105
11884SOL     OW37092   0.790   4.185   4.648  0.3614 -0.4626 -0.1649
11884SOL    HW137093   0.737   4.265   4.643 -0.2321 -0.9090 -1.3396
11884SOL    HW237094   0.820   4.170   4.558  1.3392 -0.9975  0.2270
11885SOL     OW37095   3.655   1.818  11.416  0.8139  0.2050  0.5000
11885SOL    HW137096   3.734   1.841  11.464 -0.5984  2.2342  1.9990
11885SOL    HW237097   3.624   1.901  11.380 -0.2515 -0.6701 -0.6938
11886SOL     OW37098   0.129   4.276   6.051 -0.2808 -0.4464 -0.4840
11886SOL    HW137099   0.107   4.250   5.962 -3.2936 -0.2602  0.1091
11886SOL    HW237100   0.072   4.223   6.107 -0.3713  1.2861  1.1843
11887SOL     OW37101   1.815   3.244  10.421 -0.4543  0.0076 -0.2610
11887SOL    HW137102   1.831   3.177  10.488 -1.3562  1.0279  1.0354
11887SOL    HW237103   1.884   3.310  10.436  1.1894 -1.1170 -2.3147
11888SOL     OW37104   7.299   4.872   8.968  0.3894  0.1674  0.0267
11888SOL    HW137105   7.307   4.824   8.885 -2.1075 -0.2827 -0.0119
11888SOL    HW237106   7.345   4.817   9.032 -0.8754 -1.4194 -0.3711
11889SOL     OW37107   2.330   5.780   6.134 -0.0947 -0.4631  0.4533
11889SOL    HW137108   2.250   5.733   6.109  0.7388 -0.9330 -1.5016
11889SOL    HW237109   2.304   5.872   6.136 -0.5159 -0.5365 -0.9785
11890SOL     OW37110   4.927   3.638   2.615  0.0187 -0.0497 -0.1146
11890SOL    HW137111   4.890   3.573   2.675 -0.6066  0.9142  0.5586
11890SOL    HW237112   4.855   3.697   2.595  0.5583  0.3998 -0.7948
11891SOL     OW37113   0.995   3.576   9.451  0.1809  0.0086 -0.3249
11891SOL    HW137114   0.906   3.602   9.425 -0.1089  0.2176  0.8262
11891SOL    HW237115   1.051   3.645   9.416 -0.4255  1.4332  1.3645
11892SOL     OW37116   0.657   2.426   6.387 -0.4843  0.3056 -0.0144
11892SOL    HW137117   0.590   2.377   6.435 -1.3405  0.5825 -0.8825
11892SOL    HW237118   0.737   2.415   6.438 -1.3565  0.5890  1.4777
11893SOL     OW37119   0.151   7.323   1.693 -0.5382  0.0660 -0.4684
11893SOL    HW137120   0.146   7.393   1.758  0.6943 -2.4786  2.6279
11893SOL    HW237121   0.206   7.359   1.624 -0.9583  2.5438  0.3775
11894SOL     OW37122   5.997   2.331   6.060 -0.7037 -0.7135 -0.3874
11894SOL    HW137123   6.054   2.369   6.126 -1.7856 -0.7398  0.5913
11894SOL    HW237124   6.056   2.302   5.990  0.4718 -0.8594  0.6474
11895SOL     OW37125   4.271   1.050   9.777 -0.4446  0.3879  0.3076
11895SOL    HW137126   4.220   0.970   9.783  0.1470 -0.0266 -0.0853
11895SOL    HW237127   4.332   1.045   9.850  0.7940 -0.3965 -0.7401
11896SOL     OW37128   0.735   0.572   3.293  0.1255  0.1070 -0.0493
11896SOL    HW137129   0.752   0.597   3.202 -0.5423 -0.0745 -0.2339
11896SOL    HW237130   0.797   0.501   3.311  1.1968  1.0493  0.0871
11897SOL     OW37131   1.384   3.174   4.993 -0.1939 -0.1058 -0.1556
11897SOL    HW137132   1.388   3.182   5.088  1.7077  0.1617 -0.2354
11897SOL    HW237133   1.404   3.261   4.960 -1.5037 -0.0267 -0.8344
11898SOL     OW37134   6.206   1.632   1.548  0.3631  0.1356  0.5315
11898SOL    HW137135   6.148   1.557   1.536  0.8233 -0.1742  0.2155
11898SOL    HW237136   6.153   1.695   1.598  0.5903 -1.1409  2.5291
11899SOL     OW37137   3.794   4.031   4.457 -0.6370 -0.1333  0.5873
11899SOL    HW137138   3.733   4.067   4.393 -0.0956 -1.7945 -0.9360
11899SOL    HW237139   3.741   4.015   4.535 -1.9248 -0.5921 -0.3583
11900SOL     OW37140   6.790   5.067   6.960 -0.1090  0.6398  0.1273
11900SOL    HW137141   6.740   5.051   7.040  0.7945  0.0335  0.5975
11900SOL    HW237142   6.775   5.159   6.941 -0.3952  0.7833  0.9766
11901SOL     OW37143   0.222   7.751   9.887 -0.0637 -0.2030 -0.3809
11901SOL    HW137144   0.264   7.832   9.915 -2.7906  1.5680 -1.0471
11901SOL    HW237145   0.230   7.693   9.962  0.0907  1.4410  0.9345
11902SOL     OW37146   6.470   6.419  10.942  0.2915 -0.8248  0.1101
11902SOL    HW137147   6.548   6.387  10.896 -1.2196 -3.2296 -0.9528
11902SOL    HW237148   6.402   6.420  10.875 -0.1477  4.0244  0.2159
11903SOL     OW37149   3.798   5.863   4.219  0.0548  0.0184  0.2434
11903SOL    HW137150   3.834   5.866   4.131  1.5899 -0.3100  0.8282
11903SOL    HW237151   3.855   5.803   4.266 -1.7671 -1.1908  1.0238
11904SOL     OW37152   0.460   6.987   7.505 -0.1627 -0.9727  0.1034
11904SOL    HW137153   0.554   7.001   7.491 -0.1473 -1.5299 -0.3339
11904SOL    HW237154   0.431   7.067   7.549 -0.0972  0.6228 -2.5120
11905SOL     OW37155   3.939   2.214   3.588  0.2411 -0.6363  0.0390
11905SOL    HW137156   3.896   2.270   3.523 -0.7940 -1.3727  0.0752
11905SOL    HW237157   3.888   2.227   3.668 -0.5794 -2.2800 -0.1730
11906SOL     OW37158   6.387   3.450   1.037  0.7750 -0.0373  0.4715
11906SOL    HW137159   6.353   3.538   1.055 -0.3908 -0.5284  0.8028
11906SOL    HW237160   6.337   3.419   0.962  0.3152 -0.8614  1.0944
11907SOL     OW37161   1.787   4.425   6.079  0.5226  0.2993 -0.1268
11907SOL    HW137162   1.815   4.381   5.999  0.6681  0.2141 -0.0296
11907SOL    HW237163   1.700   4.388   6.097  0.9522 -0.4933  0.3561
11908SOL     OW37164   3.841   6.686  10.277  0.1710 -0.0889 -0.3379
11908SOL    HW137165   3.911   6.734  10.321  0.7456 -0.3478 -0.9528
11908SOL    HW237166   3.787   6.652  10.348  1.6776 -1.3835  0.2462
11909SOL     OW37167   2.121   1.914   3.880 -0.0284  0.0313  0.0864
11909SOL    HW137168   2.100   1.841   3.939  0.2747  1.1199  1.6000
11909SOL    HW237169   2.169   1.976   3.935 -0.4518  1.4682 -1.1069
11910SOL     OW37170   0.864   0.991   9.266 -0.1542  0.2915 -0.3784
11910SOL    HW137171   0.816   1.002   9.348 -0.1061  0.3180 -0.3534
11910SOL    HW237172   0.797   0.996   9.198 -0.3599 -0.9136 -0.2838
11911SOL     OW37173   7.063   2.002  11.857  0.0496 -0.1388  0.4074
11911SOL    HW137174   7.082   2.070  11.793  1.4424  0.4727  1.4079
11911SOL    HW237175   7.135   2.008  11.920 -0.2589 -1.9773  0.9911
11912SOL     OW37176   6.705   7.232   8.770  0.2372 -0.4501 -0.0045
11912SOL    HW137177   6.666   7.149   8.742  0.0472  0.0855 -1.4238
11912SOL    HW237178   6.658   7.255   8.850 -1.1481 -0.6954 -0.7150
11913SOL     OW37179   7.444   0.531   3.015  0.1616  0.4671 -0.1975
11913SOL    HW137180   7.370   0.470   3.015  0.1352  0.4994  0.0780
11913SOL    HW237181   7.406   0.614   3.043  0.4930  0.2512  0.9384
11914SOL     OW37182   2.479   7.123   7.957  0.3625  0.1202  0.3698
11914SOL    HW137183   2.511   7.146   7.870 -0.3972  1.8760  0.5180
11914SOL    HW237184   2.555   7.133   8.014  0.3754  1.0326  0.2126
11915SOL     OW37185   1.481   0.838   9.174  0.6065  0.1326 -0.1906
11915SOL    HW137186   1.439   0.765   9.129 -0.8886  1.0086 -0.2503
11915SOL    HW237187   1.574   0.826   9.155  0.1962 -0.5414 -2.0051
11916SOL     OW37188   7.096   5.506   2.805 -0.6363 -0.7554 -0.3569
11916SOL    HW137189   7.091   5.563   2.729  2.8620 -1.6374 -1.4228
11916SOL    HW237190   7.172   5.538   2.854 -2.2152 -0.8192  2.3091
11917SOL     OW37191   5.269   7.135  10.108  0.5409  0.1386  0.1487
11917SOL    HW137192   5.179   7.166  10.096  0.5236 -0.0010 -0.1022
11917SOL    HW237193   5.319   7.183  10.041  0.5459 -0.2355 -0.1156
11918SOL     OW37194   4.903   7.462   1.002  0.0949 -0.0508  0.1591
11918SOL    HW137195   4.819   7.428   0.972  0.2326 -0.9194  0.7260
11918SOL    HW237196   4.954   7.474   0.922 -1.1759  2.2840 -0.3894
11919SOL     OW37197   3.260   2.162   6.813 -0.6515 -0.2531 -0.5392
11919SOL    HW137198   3.234   2.230   6.751  1.0275 -0.2110 -1.2461
11919SOL    HW237199   3.349   2.185   6.838 -1.3518 -0.1093  2.1625
11920SOL     OW37200   1.591   5.357   7.857  0.0307  0.2107  0.1035
11920SOL    HW137201   1.540   5.300   7.914  1.7434  0.3288  1.8366
11920SOL    HW237202   1.671   5.308   7.838 -0.8621 -0.2770 -3.1609
11921SOL     OW37203   0.645   6.290   2.475 -0.3203 -0.2223  0.1641
11921SOL    HW137204   0.569   6.310   2.420 -0.8929  1.0026  1.3602
11921SOL    HW237205   0.624   6.327   2.560  1.5006 -0.1147  0.6119
11922SOL     OW37206   1.682   2.245   3.524  0.1840  0.0722  0.6168
11922SOL    HW137207   1.603   2.191   3.532 -1.2204  1.7786 -0.7336
11922SOL    HW237208   1.687   2.292   3.607  1.3740 -1.9908  1.7689
11923SOL     OW37209   0.942   7.606   7.828 -0.3734  0.1701 -0.2086
11923SOL    HW137210   0.939   7.657   7.908 -1.0883  0.4950 -0.4344
11923SOL    HW237211   0.876   7.538   7.840  1.2988 -1.4204  0.5405
11924SOL     OW37212   3.118   1.301   6.455  0.0554 -0.3274  0.0742
11924SOL    HW137213   3.070   1.300   6.372 -1.3768  2.7729  0.6982
11924SOL    HW237214   3.208   1.278   6.432 -0.1971  0.8828 -2.4714
11925SOL     OW37215   7.312   6.738   3.803 -0.2570  0.2284 -0.1247
11925SOL    HW137216   7.333   6.804   3.869  0.4782 -1.4510  1.4066
11925SOL    HW237217   7.241   6.687   3.841  0.4508 -1.0242 -0.4182
11926SOL     OW37218   0.236   4.534   9.188  0.0158  0.0643  0.5917
11926SOL    HW137219   0.326   4.565   9.179 -0.4032  0.8838 -1.3387
11926SOL    HW237220   0.189   4.606   9.228  0.1124 -0.1953  1.1850
11927SOL     OW37221   4.229   7.015   4.921  0.3466  0.9275  0.2943
11927SOL    HW137222   4.290   6.947   4.950 -0.1811  0.3533  0.0817
11927SOL    HW237223   4.272   7.054   4.845  0.7147  0.9238  0.4953
11928SOL     OW37224   3.798   1.338   7.060  0.1765  0.3330 -0.2606
11928SOL    HW137225   3.864   1.398   7.093  1.7905 -0.3811 -2.0734
11928SOL    HW237226   3.739   1.392   7.008 -0.1830  0.8184  0.6294
11929SOL     OW37227   0.835   3.101  11.006 -0.2581  0.5960 -0.1751
11929SOL    HW137228   0.753   3.089  11.053  0.3473 -2.1062  0.3285
11929SOL    HW237229   0.816   3.074  10.916  0.1442 -0.3756  0.0234
11930SOL     OW37230   5.440   3.805  11.268  0.0291  0.0311  0.0814
11930SOL    HW137231   5.448   3.747  11.191 -1.3647  2.0442 -1.6995
11930SOL    HW237232   5.399   3.750  11.335  1.0250 -1.7155 -0.6817
11931SOL     OW37233   5.501   7.904   2.524  0.4649  0.0749  0.0322
11931SOL    HW137234   5.482   7.812   2.504 -0.2164 -0.1897  1.7113
11931SOL    HW237235   5.541   7.902   2.611  1.1107  1.3148 -0.2152
11932SOL     OW37236   0.985   5.501   3.428  0.1154  0.2001  0.0688
11932SOL    HW137237   1.028   5.455   3.355 -0.4880 -1.6192  0.8101
11932SOL    HW237238   0.894   5.511   3.399  0.1612  0.6376  0.0645
11933SOL     OW37239   6.841   6.969   6.405 -0.3256 -0.7176 -0.0510
11933SOL    HW137240   6.825   6.996   6.314 -0.3700 -0.2626  0.0856
11933SOL    HW237241   6.772   7.013   6.454 -1.1216 -2.0314  0.0490
11934SOL     OW37242   1.380   6.687   8.347  0.0594  0.2690  0.4978
11934SOL    HW137243   1.334   6.767   8.322 -1.4982 -0.6764  0.2200
11934SOL    HW237244   1.471   6.702   8.320 -0.3029  1.7197 -0.0159
11935SOL     OW37245   1.442   3.453   6.727  0.3535  0.2778  0.6978
11935SOL    HW137246   1.450   3.451   6.822  1.5258  3.1551  0.7927
11935SOL    HW237247   1.392   3.533   6.709  1.0326  0.3577 -1.0818
11936SOL     OW37248   1.981   0.258   3.033 -0.7412 -0.3621  0.3602
11936SOL    HW137249   2.008   0.174   3.070 -1.2157 -0.6274  0.1170
11936SOL    HW237250   2.063   0.301   3.008 -0.2084  0.6967  3.4895
11937SOL     OW37251   5.543   4.448   5.297 -0.4952 -0.1821 -0.0424
11937SOL    HW137252   5.581   4.361   5.285 -0.9312 -0.4017  0.1561
11937SOL    HW237253   5.496   4.442   5.380 -0.5941  0.2174 -0.0714
11938SOL     OW37254   6.465   3.117   5.202 -0.0220 -0.1627  0.3538
11938SOL    HW137255   6.393   3.062   5.171  0.4415 -1.1221  0.9154
11938SOL    HW237256   6.543   3.081   5.159  0.1619  0.7044 -0.0563
11939SOL     OW37257   2.045   4.127   8.351  0.4608  0.4761 -0.2893
11939SOL    HW137258   1.966   4.179   8.370  0.7510  0.4170  1.2305
11939SOL    HW237259   2.094   4.180   8.289  1.1696  2.5070  1.8672
11940SOL     OW37260   7.041   6.118  10.740  0.1726  0.0795 -0.3132
11940SOL    HW137261   6.986   6.054  10.786  1.6992 -0.3389  1.0669
11940SOL    HW237262   7.083   6.067  10.670  3.2025 -1.2737  2.1768
11941SOL     OW37263   7.496   5.059   9.818 -0.1964 -0.3182 -0.0541
11941SOL    HW137264   7.591   5.069   9.825 -0.3851  1.6135  0.3569
11941SOL    HW237265   7.466   5.052   9.909 -0.4565 -0.7934 -0.1763
11942SOL     OW37266   1.735   5.919   9.088  0.5773  0.4053  0.5928
11942SOL    HW137267   1.745   5.826   9.065 -0.1308  0.4837 -0.0748
11942SOL    HW237268   1.778   5.927   9.173  2.4439 -0.1043 -0.2394
11943SOL     OW37269   3.732   3.372  12.053  0.2573 -0.1202 -0.0800
11943SOL    HW137270   3.785   3.374  12.133 -0.9134  0.1350  0.7255
11943SOL    HW237271   3.662   3.436  12.070 -0.1524 -0.2543 -1.2081
11944SOL     OW37272   0.843   3.866  10.637  0.0509 -0.1150  0.6821
11944SOL    HW137273   0.882   3.907  10.559 -1.0350  0.2676  0.3203
11944SOL    HW237274   0.765   3.918  10.654  1.2887  1.0987  3.2493
11945SOL     OW37275   1.448   5.748   3.647 -0.0494 -0.2974 -0.5107
11945SOL    HW137276   1.489   5.734   3.562  1.6384 -0.1898  0.2599
11945SOL    HW237277   1.503   5.813   3.690  0.8805 -2.4838  1.8094
11946SOL     OW37278   2.242   7.425   7.465 -0.2071  0.0049  0.4036
11946SOL    HW137279   2.226   7.331   7.457 -1.7482 -0.2646  4.3616
11946SOL    HW237280   2.337   7.433   7.457  0.0624 -2.0620  0.8795
11947SOL     OW37281   2.452   1.041   1.041 -0.2858 -0.3906  0.0118
11947SOL    HW137282   2.528   0.986   1.018  1.3251  1.2195  1.1849
11947SOL    HW237283   2.376   0.986   1.022  1.1737 -2.2210 -0.8748
11948SOL     OW37284   3.516   5.220   7.825  0.3578  0.3997 -0.1363
11948SOL    HW137285   3.547   5.310   7.814  1.3273  0.1441  0.4414
11948SOL    HW237286   3.493   5.213   7.917  0.5362 -0.0229 -0.1211
11949SOL     OW37287   1.718   1.350   3.757 -0.1664 -0.2713  0.4227
11949SOL    HW137288   1.761   1.281   3.807  0.8835 -0.1653 -0.2823
11949SOL    HW237289   1.681   1.408   3.823  0.1111 -0.7876  1.0486
11950SOL     OW37290   6.785   4.383   2.302  0.1753  0.1258  0.2286
11950SOL    HW137291   6.689   4.385   2.299  0.1858  1.0633  0.1822
11950SOL    HW237292   6.813   4.394   2.211  0.3356 -0.1564  0.2401
11951SOL     OW37293   7.699   5.856  11.323 -0.7275 -0.1566 -0.5110
11951SOL    HW137294   7.737   5.825  11.240 -0.0094 -0.8505  0.0579
11951SOL    HW237295   7.710   5.951  11.320  0.0670 -0.2486 -0.8459
11952SOL     OW37296   2.494   5.366   8.882 -0.6069  0.2420 -0.2769
11952SOL    HW137297   2.532   5.304   8.944 -0.2068  2.2607  1.6142
11952SOL    HW237298   2.476   5.314   8.804  0.3768 -2.0674  0.9460
11953SOL     OW37299   4.415   0.945   4.462  0.1256 -0.1583 -0.0080
11953SOL    HW137300   4.457   0.924   4.545 -0.5059 -1.8642 -0.0953
11953SOL    HW237301   4.327   0.908   4.468 -1.3695  3.0932  0.0491
11954SOL     OW37302   5.651   7.626   5.707 -0.4553 -0.3798 -0.0621
11954SOL    HW137303   5.660   7.581   5.623  0.0997 -0.1472 -0.1311
11954SOL    HW237304   5.651   7.557   5.773 -0.8198 -0.5583 -0.2495
11955SOL     OW37305   5.424   1.120   7.853 -0.5119  0.0732  0.5386
11955SOL    HW137306   5.503   1.093   7.899 -0.2307  1.6844  1.0515
11955SOL    HW237307   5.389   1.192   7.905 -1.3000  0.6021 -0.6695
11956SOL     OW37308   0.167   1.057   7.481  0.0378 -0.3342 -0.3396
11956SOL    HW137309   0.203   0.972   7.457  1.3459  0.1394 -0.1474
11956SOL    HW237310   0.240   1.102   7.525 -0.2377  1.3433 -1.5344
11957SOL     OW37311   3.652   0.576   1.934 -0.4334  0.1800 -0.0784
11957SOL    HW137312   3.711   0.637   1.978 -0.8280  0.2743  0.3328
11957SOL    HW237313   3.586   0.555   2.000 -0.4184 -0.5342 -0.2821
11958SOL     OW37314   7.484   7.858   6.871  0.4897  0.4312  0.9358
11958SOL    HW137315   7.511   7.766   6.881  0.6719  0.5580  1.6565
11958SOL    HW237316   7.501   7.897   6.957  0.8141  1.2448  0.5060
11959SOL     OW37317   3.533   2.932   7.324  0.1622 -0.2850 -0.1163
11959SOL    HW137318   3.547   2.965   7.235 -0.1678 -1.2948 -0.5665
11959SOL    HW237319   3.606   2.873   7.340  1.1626  1.1931  0.9726
11960SOL     OW37320   6.989   1.097   7.802  0.6006  0.2877  0.2658
11960SOL    HW137321   6.896   1.089   7.824  0.7785  0.4272  1.1248
11960SOL    HW237322   6.993   1.092   7.707 -0.3060  0.4897  0.2165
11961SOL     OW37323   0.656   1.389  10.747 -0.2179  0.2063  0.1448
11961SOL    HW137324   0.654   1.411  10.654  2.9733 -1.9443 -0.5982
11961SOL    HW237325   0.628   1.297  10.750  2.9461 -0.8404  0.7408
11962SOL     OW37326   4.207   3.200  11.710 -0.7656  0.0972  0.2702
11962SOL    HW137327   4.168   3.213  11.797 -0.9061 -0.4230  0.2914
11962SOL    HW237328   4.299   3.180  11.729 -0.5649  0.9567  0.2395
11963SOL     OW37329   6.065   6.681   3.637  0.1432  0.0219 -0.0981
11963SOL    HW137330   6.025   6.604   3.679 -2.1973  0.7071 -0.9305
11963SOL    HW237331   6.081   6.741   3.710  1.5642 -1.0063  0.5016
11964SOL     OW37332   7.099   3.981   1.752 -0.3602 -0.0061 -0.2068
11964SOL    HW137333   7.177   4.003   1.702  0.5702  0.5367  1.4095
11964SOL    HW237334   7.132   3.941   1.832 -1.8116 -1.3805 -0.2311
11965SOL     OW37335   6.316   7.800   8.442  0.5164  0.4334  0.0773
11965SOL    HW137336   6.333   7.758   8.358 -1.6570  1.4947 -0.9617
11965SOL    HW237337   6.226   7.778   8.462  1.3421 -0.8503  2.8225
11966SOL     OW37338   3.376   6.076   2.064 -0.1460  0.2815  0.4057
11966SOL    HW137339   3.359   6.074   2.158  1.2655 -0.4816  0.6815
11966SOL    HW237340   3.466   6.045   2.056 -0.3995 -0.1127 -1.2410
11967SOL     OW37341   1.380   7.055   4.151 -0.6713  0.0896 -0.1190
11967SOL    HW137342   1.325   7.001   4.094 -1.1311  1.1606 -0.6995
11967SOL    HW237343   1.392   7.137   4.104  2.3983 -0.4886 -0.5690
11968SOL     OW37344   0.856   5.018  11.314  0.2235  0.7933 -0.2239
11968SOL    HW137345   0.925   4.967  11.358  0.5491  1.9254  0.6446
11968SOL    HW237346   0.774   4.980  11.345  0.4593  0.5737  0.1376
11969SOL     OW37347   6.310   2.892   5.708  0.6354 -0.0959 -0.0777
11969SOL    HW137348   6.281   2.801   5.697  0.2768 -0.1041  0.8269
11969SOL    HW237349   6.241   2.944   5.666  0.7294 -0.2276 -0.4011
11970SOL     OW37350   1.777   1.208   5.091  0.3088  0.4961  0.2883
11970SOL    HW137351   1.839   1.193   5.019 -3.0506  0.0892 -2.7648
11970SOL    HW237352   1.740   1.295   5.073 -3.1611 -1.0358 -0.7170
11971SOL     OW37353   1.281   0.379   0.908  0.3391  0.1776 -0.3531
11971SOL    HW137354   1.210   0.348   0.965  1.2336 -0.1077  0.6314
11971SOL    HW237355   1.337   0.303   0.895  0.8065  0.5555 -0.6126
11972SOL     OW37356   7.644   1.655   7.308  0.2839 -0.3444 -0.7337
11972SOL    HW137357   7.692   1.644   7.226 -1.3346 -1.1574 -1.6234
11972SOL    HW237358   7.559   1.689   7.282  0.0352  0.2130  0.7077
11973SOL     OW37359   7.209   4.383  11.408 -0.4820  0.4402 -0.2013
11973SOL    HW137360   7.284   4.408  11.462 -0.0319 -0.6969 -0.2789
11973SOL    HW237361   7.137   4.375  11.470 -0.4885  1.2510 -0.0866
11974SOL     OW37362   3.929   0.937   3.237  0.1056  0.7307 -0.1352
11974SOL    HW137363   3.962   0.906   3.153 -0.8079  0.6329 -0.4716
11974SOL    HW237364   3.998   0.994   3.270  1.6012 -1.1902  0.2584
11975SOL     OW37365   0.876   6.825   2.504 -0.2349  0.1519  0.0828
11975SOL    HW137366   0.925   6.746   2.526  0.5958  1.2479  2.4108
11975SOL    HW237367   0.927   6.867   2.435  0.9002  0.1353  0.9003
11976SOL     OW37368   0.339   7.332   0.768  0.0724 -0.1149 -0.9473
11976SOL    HW137369   0.413   7.389   0.748  0.0289  0.3212  0.0706
11976SOL    HW237370   0.377   7.244   0.776  1.2738  0.5471  3.3408
11977SOL     OW37371   6.343   4.405   4.906  0.2821 -0.1800  0.7721
11977SOL    HW137372   6.397   4.421   4.983  1.1014  0.7568  0.0324
11977SOL    HW237373   6.404   4.411   4.832 -1.0171  2.3122 -0.2116
11978SOL     OW37374   3.779   7.721  11.626 -0.6975 -0.0615 -0.0589
11978SOL    HW137375   3.829   7.789  11.581 -0.1986  0.6807  1.5499
11978SOL    HW237376   3.842   7.649  11.638 -0.2360  0.5072  1.1325
11979SOL     OW37377   1.519   2.709   7.674  0.1739 -0.1737 -0.6483
11979SOL    HW137378   1.496   2.799   7.693  0.3341  0.5773 -3.5571
11979SOL    HW237379   1.456   2.681   7.608  0.1159 -2.2386  0.1822
11980SOL     OW37380   4.888   4.806   5.914  0.5724 -0.4330 -0.1068
11980SOL    HW137381   4.885   4.841   5.825  0.0364 -0.8205 -0.2498
11980SOL    HW237382   4.833   4.865   5.965  0.5693 -0.4264 -0.1176
11981SOL     OW37383   7.282   2.889  10.768  0.4312  0.5238 -0.4731
11981SOL    HW137384   7.240   2.839  10.698  0.7415  0.8585 -0.9012
11981SOL    HW237385   7.320   2.823  10.826 -2.3433  0.0879  1.0287
11982SOL     OW37386   1.271   7.440   0.301  0.4263  0.3719 -0.2817
11982SOL    HW137387   1.304   7.400   0.220 -0.7269 -1.4855  0.1050
11982SOL    HW237388   1.306   7.385   0.371 -1.0422  0.1020  0.2852
11983SOL     OW37389   5.632   4.710   3.080 -0.0109  0.2717 -0.3789
11983SOL    HW137390   5.608   4.661   3.159 -0.4675  0.5394 -0.3439
11983SOL    HW237391   5.689   4.780   3.112  0.8903 -0.3985 -0.4683
11984SOL     OW37392   3.747   2.049   8.572 -0.1465  0.4751 -0.0701
11984SOL    HW137393   3.761   2.129   8.522 -0.1303  1.2862  1.1801
11984SOL    HW237394   3.687   2.075   8.642 -1.9663 -1.1556 -0.9331
11985SOL     OW37395   7.007   3.862   8.650 -0.9582 -0.1210  0.1190
11985SOL    HW137396   6.994   3.827   8.561 -1.9801 -0.5773  0.4274
11985SOL    HW237397   6.919   3.881   8.681 -0.5248  1.1111  0.6255
11986SOL     OW37398   1.098   3.684   3.501  0.4197  0.0007  0.1232
11986SOL    HW137399   1.098   3.778   3.481 -0.0487 -0.5698 -3.0527
11986SOL    HW237400   1.164   3.647   3.442 -0.2697 -1.8281  0.4409
11987SOL     OW37401   5.758   0.995   2.295 -0.2194 -0.1699 -0.0953
11987SOL    HW137402   5.841   1.043   2.300 -0.5159  0.7143 -2.2931
11987SOL    HW237403   5.714   1.012   2.378  1.4852 -0.1069  0.8438
11988SOL     OW37404   3.138   0.439   2.052  0.2995 -0.6305 -0.3637
11988SOL    HW137405   3.210   0.498   2.072  1.1970 -1.5243 -0.9002
11988SOL    HW237406   3.072   0.459   2.118  1.8809 -1.2531  1.4832
11989SOL     OW37407   3.277   6.597   0.562  0.2019 -0.0729 -0.2224
11989SOL    HW137408   3.311   6.515   0.600  0.9221  0.0282 -0.6351
11989SOL    HW237409   3.254   6.574   0.472 -0.8125 -0.1271  0.0301
11990SOL     OW37410   1.562   2.743   1.977 -0.2076  0.3346 -0.5989
11990SOL    HW137411   1.513   2.677   2.026  0.2628 -0.0550 -0.6495
11990SOL    HW237412   1.594   2.803   2.044 -2.9828  2.1598 -0.7359
11991SOL     OW37413   2.308   5.660  12.030  0.2155 -0.0291 -0.1045
11991SOL    HW137414   2.285   5.730  11.969 -0.3787 -0.1041  0.0280
11991SOL    HW237415   2.225   5.638  12.074  0.1268 -1.5914 -0.9562
11992SOL     OW37416   5.503   4.515  10.542  0.3374 -0.3501  0.2605
11992SOL    HW137417   5.432   4.513  10.478 -1.5249  0.7976  2.1518
11992SOL    HW237418   5.570   4.571  10.503 -0.8168  0.4506 -0.6257
11993SOL     OW37419   3.847   3.435  11.753  0.3016  0.5370 -0.6543
11993SOL    HW137420   3.774   3.410  11.696  0.0222  0.9620 -0.4839
11993SOL    HW237421   3.915   3.465  11.693  0.3019  0.2416 -0.8064
11994SOL     OW37422   3.713   3.907   1.942  0.1958  0.2028 -0.1595
11994SOL    HW137423   3.771   3.849   1.893  1.7948 -0.0131  1.8615
11994SOL    HW237424   3.759   3.991   1.943  0.8767 -0.1356  2.0103
11995SOL     OW37425   7.400   2.997   3.120  0.0274  0.2340 -0.2054
11995SOL    HW137426   7.413   3.087   3.089  0.0258  0.2868 -0.0559
11995SOL    HW237427   7.477   2.979   3.175 -0.6476  0.6507  0.9101
11996SOL     OW37428   6.509   3.302  11.274  0.6327  0.0822 -0.0171
11996SOL    HW137429   6.535   3.253  11.196  0.4140  0.6464 -0.4492
11996SOL    HW237430   6.549   3.388  11.263  2.4180 -0.4813  1.5447
11997SOL     OW37431   1.055   7.570   4.254 -0.1809  0.0727 -0.0596
11997SOL    HW137432   0.983   7.560   4.192  0.6623 -0.4718 -0.9848
11997SOL    HW237433   1.089   7.481   4.265  1.2216  0.5048 -0.7192
11998SOL     OW37434   7.084   7.286   0.154 -0.2379 -0.5548 -0.0658
11998SOL    HW137435   7.015   7.245   0.206  0.2812 -1.0042  0.2861
11998SOL    HW237436   7.062   7.379   0.154 -0.5359 -0.6208  0.5054
11999SOL     OW37437   0.126   1.039   3.714 -0.1725 -0.3853 -0.0473
11999SOL    HW137438   0.144   0.971   3.649 -0.5057 -0.0441 -0.4989
11999SOL    HW237439   0.123   1.120   3.664  1.7106  0.2011  0.6660
12000SOL     OW37440   3.829   2.818   7.331  0.4541  0.5936 -0.2264
12000SOL    HW137441   3.847   2.730   7.298 -1.2824 -0.3636  1.2046
12000SOL    HW237442   3.823   2.872   7.253 -0.0793 -0.8939 -1.2575
12001SOL     OW37443   3.889   0.081   8.789 -0.0198  0.5632  0.5161
12001SOL    HW137444   3.843   0.149   8.838 -1.5071 -1.2613  1.7675
12001SOL    HW237445   3.931   0.027   8.856  0.0767 -0.4961 -0.3654
12002SOL     OW37446   3.236   0.704   2.329  0.3641 -0.0029 -0.7154
12002SOL    HW137447   3.294   0.633   2.301 -1.1704 -2.3246  1.4896
12002SOL    HW237448   3.208   0.746   2.248  1.1449 -2.0897 -2.1476
12003SOL     OW37449   6.120   4.310   0.428 -0.2315  0.1340  0.2507
12003SOL    HW137450   6.215   4.324   0.429 -0.1506 -0.3642  0.1604
12003SOL    HW237451   6.106   4.237   0.488 -0.6871  0.8863  1.0826
12004SOL     OW37452   5.799   6.545  10.120  0.5640 -0.1196  0.6755
12004SOL    HW137453   5.741   6.468  10.120  1.0166 -0.5420 -1.3705
12004SOL    HW237454   5.780   6.590  10.202 -4.1634  0.8698 -0.6510
12005SOL     OW37455   0.478   4.422  10.546 -0.3384 -0.8369 -0.1024
12005SOL    HW137456   0.567   4.389  10.560  0.2128 -1.0624 -3.3336
12005SOL    HW237457   0.476   4.506  10.592  1.5452 -0.8566  0.0934
12006SOL     OW37458   7.543   2.046   1.724 -0.0241 -0.1507 -0.0133
12006SOL    HW137459   7.470   2.059   1.784 -0.2056 -0.2642 -0.2093
12006SOL    HW237460   7.502   2.034   1.638  0.1999 -0.7537 -0.0409
12007SOL     OW37461   1.272   7.238   8.466  0.0379 -1.0753 -0.6515
12007SOL    HW137462   1.231   7.207   8.547 -2.4225 -0.9382 -1.7584
12007SOL    HW237463   1.210   7.301   8.430  1.0203 -1.2023 -2.6990
12008SOL     OW37464   0.315   4.042   6.475 -0.1092 -0.0912 -0.1084
12008SOL    HW137465   0.380   3.994   6.527 -0.0634 -0.2245 -0.2861
12008SOL    HW237466   0.324   4.006   6.386 -0.5395 -0.2288 -0.0987
12009SOL     OW37467   5.203   3.215   1.751 -0.3490  0.2143  0.3661
12009SOL    HW137468   5.237   3.277   1.686  1.3262 -0.9853  0.0337
12009SOL    HW237469   5.159   3.147   1.699  0.8808 -0.6795  0.4556
12010SOL     OW37470   2.007   3.873   0.153 -0.6377 -0.4092  0.4650
12010SOL    HW137471   1.920   3.911   0.165 -0.8007 -0.9080  0.8688
12010SOL    HW237472   2.006   3.837   0.064 -1.5685 -2.2831  1.1996
12011SOL     OW37473   5.979   1.658  11.241 -0.1467  0.6798 -0.0480
12011SOL    HW137474   6.068   1.661  11.276 -0.7171  0.7966  1.4555
12011SOL    HW237475   5.969   1.741  11.194  0.3918  0.8521  0.1334
12012SOL     OW37476   3.725   2.283   5.106 -0.2822 -1.0349 -0.4507
12012SOL    HW137477   3.776   2.339   5.163 -1.2060 -0.2726 -0.3448
12012SOL    HW237478   3.663   2.239   5.165  0.6357 -2.4225 -0.4859
12013SOL     OW37479   2.134   2.499   3.511 -0.0178  0.0443  0.1612
12013SOL    HW137480   2.229   2.513   3.511 -0.0216  0.1087  1.0056
12013SOL    HW237481   2.122   2.416   3.558 -0.3758 -0.0013 -0.0076
12014SOL     OW37482   4.815   5.889  10.803  0.2452 -0.2253 -0.0440
12014SOL    HW137483   4.790   5.962  10.747  0.5724 -0.1390 -0.0775
12014SOL    HW237484   4.846   5.822  10.742 -2.4163 -1.3868 -0.2424
12015SOL     OW37485   0.665   6.914   0.437 -0.3353 -0.5356 -0.2948
12015SOL    HW137486   0.641   6.935   0.527  0.9368  0.0515 -0.0737
12015SOL    HW237487   0.618   6.832   0.418 -1.4813 -0.0887  0.5058
12016SOL     OW37488   2.042   3.136  10.175 -0.1800 -0.1370 -0.0346
12016SOL    HW137489   1.998   3.182  10.247 -0.2168 -0.0530 -0.1113
12016SOL    HW237490   1.972   3.120  10.111 -0.3457 -1.0348  0.3526
12017SOL     OW37491   0.507   4.647  11.364  0.7071 -0.2134  0.1861
12017SOL    HW137492   0.538   4.693  11.287  0.3394 -0.0646  0.1233
12017SOL    HW237493   0.577   4.658  11.429  1.2011 -0.7004 -0.2607
12018SOL     OW37494   5.975   3.787  11.623  0.3399  0.5356  0.4471
12018SOL    HW137495   5.910   3.716  11.623  1.2918 -0.3637 -0.2840
12018SOL    HW237496   5.926   3.863  11.592 -1.0803  0.6060  2.6374
12019SOL     OW37497   1.579   6.356   1.523 -0.7622  0.1734 -0.0934
12019SOL    HW137498   1.485   6.360   1.543 -0.9629 -1.0389 -0.7119
12019SOL    HW237499   1.598   6.263   1.514  0.1994  0.4688 -1.3895
12020SOL     OW37500   3.172   5.675  10.771  0.3611  0.0199  0.4401
12020SOL    HW137501   3.080   5.660  10.753  0.6809 -1.2805 -0.2073
12020SOL    HW237502   3.180   5.663  10.866 -0.0970 -0.0234  0.4754
12021SOL     OW37503   2.344   0.201   7.093  0.8596  0.0543 -0.2310
12021SOL    HW137504   2.416   0.146   7.123 -0.0997 -1.7253 -1.0250
12021SOL    HW237505   2.360   0.286   7.134  3.2799 -0.3318 -0.2347
12022SOL     OW37506   0.142   1.125   1.996  0.3617  0.5826  0.6192
12022SOL    HW137507   0.048   1.131   1.980  0.4290  0.3922  0.1639
12022SOL    HW237508   0.182   1.126   1.910  0.7820  0.6820  0.8117
12023SOL     OW37509   6.527   0.059   2.838  0.0044  0.1582 -0.1839
12023SOL    HW137510   6.444   0.055   2.791 -0.3524  0.3923  0.4149
12023SOL    HW237511   6.580  -0.012   2.800 -0.9973 -0.9543  0.4132
12024SOL     OW37512   7.171   6.106  11.360 -0.1760 -0.4613  0.0089
12024SOL    HW137513   7.134   6.192  11.345  0.4444 -0.2606 -0.4506
12024SOL    HW237514   7.265   6.121  11.367 -0.0156 -1.1444 -0.5053
12025SOL     OW37515   6.249   7.268   4.704  0.2144  0.0287 -0.3550
12025SOL    HW137516   6.285   7.356   4.709  0.9564 -0.3166  1.5398
12025SOL    HW237517   6.320   7.215   4.669  0.7777 -0.2514  1.1388
12026SOL     OW37518   1.993   4.055   4.646 -0.0107 -0.6011 -0.4319
12026SOL    HW137519   1.919   4.115   4.653 -0.6397 -1.1009 -2.1992
12026SOL    HW237520   2.034   4.056   4.732 -0.2968  1.9630 -0.2736
12027SOL     OW37521   1.991   5.137   5.824 -0.0148  0.1145  0.2220
12027SOL    HW137522   2.003   5.222   5.865 -0.5694 -0.4551  1.6731
12027SOL    HW237523   1.918   5.097   5.873 -0.5391 -0.7278 -1.1815
12028SOL     OW37524   0.931   7.869  11.229 -0.5509  0.3168  0.1445
12028SOL    HW137525   0.912   7.892  11.320  0.8927  0.8420  0.3369
12028SOL    HW237526   0.863   7.914  11.178 -0.3620  1.4256  0.8421
12029SOL     OW37527   3.629   4.335   3.874 -0.3181  0.3015  0.1820
12029SOL    HW137528   3.663   4.250   3.845  1.7141  0.4807  1.7910
12029SOL    HW237529   3.537   4.319   3.892 -0.3395 -1.1479 -1.0500
12030SOL     OW37530   5.598   5.893   7.272 -0.4181  0.3051  0.5319
12030SOL    HW137531   5.642   5.846   7.201 -2.6361  0.6973 -1.2100
12030SOL    HW237532   5.590   5.983   7.240 -3.5052 -0.0054  0.1436
12031SOL     OW37533   0.461   5.498   5.680  0.3651  0.3280 -0.0005
12031SOL    HW137534   0.471   5.425   5.741  0.4687  0.6290  0.3488
12031SOL    HW237535   0.369   5.494   5.652 -0.1012  1.0564  1.3218
12032SOL     OW37536   4.643   6.553   3.464 -0.0800 -0.4119  0.0358
12032SOL    HW137537   4.708   6.619   3.441 -1.3880  0.6294 -0.8929
12032SOL    HW237538   4.659   6.482   3.402 -0.0032 -0.0279 -0.3953
12033SOL     OW37539   3.667   0.668   5.683 -0.0842 -0.3681  0.6750
12033SOL    HW137540   3.658   0.651   5.777 -1.6019  1.1225  0.8603
12033SOL    HW237541   3.634   0.589   5.641 -0.4854 -0.6108  1.4215
12034SOL     OW37542   0.414   6.504   8.355 -0.0890 -0.0792  0.1435
12034SOL    HW137543   0.509   6.515   8.346 -0.0409 -0.2699  0.3773
12034SOL    HW237544   0.376   6.573   8.302  0.1734 -1.0879 -1.4229
12035SOL     OW37545   3.872   1.520   0.832 -0.1836  0.2114 -0.3525
12035SOL    HW137546   3.919   1.591   0.788  2.0791 -0.1657  1.2592
12035SOL    HW237547   3.921   1.441   0.808  1.5503  0.0496  3.0954
12036SOL     OW37548   1.765   0.736   8.933 -0.6844  0.2366  0.3787
12036SOL    HW137549   1.745   0.691   9.015 -2.4038  0.6467  0.2383
12036SOL    HW237550   1.824   0.677   8.886 -0.1458 -0.2623  1.6526
12037SOL     OW37551   4.366   4.699   6.431 -0.0828 -0.2535  0.7194
12037SOL    HW137552   4.453   4.664   6.415 -0.4420 -1.0236  0.4230
12037SOL    HW237553   4.367   4.726   6.523  1.3203  2.2443  0.0633
12038SOL     OW37554   3.439   4.713   6.623 -0.4943  0.4846  0.0140
12038SOL    HW137555   3.512   4.775   6.618  0.5205 -0.7273 -1.2005
12038SOL    HW237556   3.399   4.716   6.535 -0.5969 -0.3745  0.0232
12039SOL     OW37557   3.955   0.531  10.115 -0.2014  0.0057 -0.3068
12039SOL    HW137558   3.930   0.576  10.195 -1.3731 -0.9788 -0.0854
12039SOL    HW237559   3.873   0.519  10.067  0.3209 -0.3952 -1.1340
12040SOL     OW37560   1.506   1.595   6.752  0.3166  0.2302 -0.2449
12040SOL    HW137561   1.492   1.583   6.846  0.3799 -0.7946 -0.3633
12040SOL    HW237562   1.526   1.689   6.743  1.1826  0.1727  0.8692
12041SOL     OW37563   6.195   0.095   0.452  0.5259  0.4166  1.0453
12041SOL    HW137564   6.129   0.026   0.459 -0.1831  1.2340  3.6668
12041SOL    HW237565   6.237   0.097   0.538  1.2041  2.5631  0.7302
12042SOL     OW37566   1.698   5.374   5.691  0.1856 -0.0543 -0.3882
12042SOL    HW137567   1.678   5.352   5.782 -0.4016  0.5228 -0.3743
12042SOL    HW237568   1.625   5.430   5.663  0.2946 -0.3356 -1.2525
12043SOL     OW37569   4.790   7.445   7.026 -0.5081  0.2557 -0.0152
12043SOL    HW137570   4.720   7.427   7.088 -0.3272  0.1031  0.1442
12043SOL    HW237571   4.856   7.379   7.044 -0.9104 -0.4707 -1.0915
12044SOL     OW37572   7.024   1.000   4.171 -0.5434 -0.0563  0.0278
12044SOL    HW137573   7.106   1.047   4.188 -0.7071  0.3082 -0.1730
12044SOL    HW237574   7.030   0.921   4.224  0.9816 -1.2217 -1.8034
12045SOL     OW37575   4.345   5.860   6.481 -0.0367  0.2608 -0.1674
12045SOL    HW137576   4.341   5.772   6.519  2.9639  0.5113  1.0399
12045SOL    HW237577   4.377   5.846   6.392  0.7782  0.1339  0.1403
12046SOL     OW37578   7.339   2.001  11.644 -0.3073 -0.0792 -0.4110
12046SOL    HW137579   7.291   2.073  11.605  2.1940  2.8392  1.4331
12046SOL    HW237580   7.395   2.042  11.710  0.8179 -3.8199  1.2661
12047SOL     OW37581   5.703   7.149   1.881 -0.0187  0.0170 -0.3171
12047SOL    HW137582   5.666   7.175   1.965 -1.7932 -0.2763 -0.9651
12047SOL    HW237583   5.793   7.181   1.884 -0.5982  1.6963  0.9337
12048SOL     OW37584   4.116   0.397   3.708 -0.3301  0.0326 -0.7379
12048SOL    HW137585   4.140   0.381   3.617 -0.4575 -1.7316 -0.4989
12048SOL    HW237586   4.165   0.332   3.758 -0.3038  0.9298  0.4631
12049SOL     OW37587   7.792   3.499   3.574  0.3051 -0.0691  0.1238
12049SOL    HW137588   7.699   3.516   3.587  0.1460 -0.2339 -0.7260
12049SOL    HW237589   7.832   3.585   3.567  0.0438 -0.0061 -0.6311
12050SOL     OW37590   4.491   0.567   9.772 -0.4190  0.0215  0.3225
12050SOL    HW137591   4.398   0.546   9.759 -0.7362  1.9509 -0.8812
12050SOL    HW237592   4.536   0.527   9.698 -0.5544  0.7166 -0.1344
12051SOL     OW37593   7.483   2.021   3.417  0.0910 -0.2389  0.1599
12051SOL    HW137594   7.409   2.003   3.360 -2.1107  1.0868  2.3898
12051SOL    HW237595   7.484   1.948   3.479  1.0878 -0.5881 -0.2582
12052SOL     OW37596   0.578   2.304   3.124  0.0956 -0.0764  0.5005
12052SOL    HW137597   0.595   2.369   3.055 -0.5261  3.0698  3.0232
12052SOL    HW237598   0.665   2.281   3.156  0.3410 -0.7802 -0.6305
12053SOL     OW37599   3.603   7.581   9.019 -0.3376 -0.2371 -0.1876
12053SOL    HW137600   3.607   7.551   8.928  0.3851 -0.7025 -0.0173
12053SOL    HW237601   3.522   7.543   9.053 -0.2256 -0.6982 -0.4264
12054SOL     OW37602   0.902   5.022   9.201 -0.2628 -0.4191  0.1545
12054SOL    HW137603   0.936   4.990   9.284 -0.8185 -0.8270  0.2248
12054SOL    HW237604   0.890   5.116   9.214 -0.9944 -0.5933  0.7562
12055SOL     OW37605   2.390   1.852  11.706  0.1838  0.0735  0.5039
12055SOL    HW137606   2.344   1.860  11.790 -1.3879 -2.4611 -0.0285
12055SOL    HW237607   2.325   1.875  11.640  1.1191  1.0673 -0.1148
12056SOL     OW37608   4.420   4.454  11.482 -0.2593  0.1230  0.2242
12056SOL    HW137609   4.432   4.425  11.391 -1.3097  0.6538 -0.1072
12056SOL    HW237610   4.331   4.489  11.484  0.4364  1.9551  0.9673
12057SOL     OW37611   3.765   0.288   5.794 -0.0470  0.3385 -0.1044
12057SOL    HW137612   3.707   0.313   5.722  0.6729 -1.2701 -1.3017
12057SOL    HW237613   3.706   0.273   5.868 -1.2690 -1.6277 -1.3803
12058SOL     OW37614   2.131   7.522   5.863  0.5222 -0.0832  0.2417
12058SOL    HW137615   2.036   7.513   5.867  0.6631 -1.6307  2.2680
12058SOL    HW237616   2.153   7.519   5.770 -1.3270 -0.9031 -0.1998
12059SOL     OW37617   4.174   3.122  11.451  0.5009 -0.0896 -0.0401
12059SOL    HW137618   4.223   3.189  11.403  1.7632 -1.7580 -1.1850
12059SOL    HW237619   4.187   3.144  11.543  1.0819  1.0791 -0.3800
12060SOL     OW37620   1.294   5.465   0.621 -0.9637 -0.4312 -0.2096
12060SOL    HW137621   1.299   5.378   0.580 -0.3063 -0.3467 -0.3258
12060SOL    HW237622   1.325   5.452   0.710 -2.1635 -0.5667  0.2128
12061SOL     OW37623   6.363   3.378  10.505  0.0836 -0.0547 -0.4009
12061SOL    HW137624   6.286   3.324  10.487  0.1123  0.2076 -1.3772
12061SOL    HW237625   6.435   3.316  10.514 -0.2468 -0.3065  0.5787
12062SOL     OW37626   1.671   0.010   7.797  0.0741  0.2573 -0.6076
12062SOL    HW137627   1.612   0.079   7.766 -1.5367 -1.1158 -0.7474
12062SOL    HW237628   1.630  -0.022   7.877 -0.3475 -1.8824 -1.6048
12063SOL     OW37629   5.377   5.017   6.382  0.0739  0.4260 -0.3486
12063SOL    HW137630   5.412   5.106   6.371 -1.3090  1.1567  0.8908
12063SOL    HW237631   5.389   4.976   6.296  2.4051  1.1638 -0.4562
12064SOL     OW37632   3.745   7.761   7.659 -0.1671  0.2993 -0.6645
12064SOL    HW137633   3.723   7.852   7.681 -1.0479  0.1566 -0.9203
12064SOL    HW237634   3.689   7.741   7.583  1.8342  0.3543 -2.2310
12065SOL     OW37635   3.955   7.131  11.270  0.8865  0.7366 -0.0952
12065SOL    HW137636   3.909   7.158  11.349  1.0016  0.6916 -0.0104
12065SOL    HW237637   4.047   7.130  11.296  0.8934  0.3517 -0.1168
12066SOL     OW37638   5.842   0.412   8.736 -0.3159 -0.2398 -0.0392
12066SOL    HW137639   5.798   0.331   8.708  0.7292 -1.0966  0.7127
12066SOL    HW237640   5.934   0.396   8.718  0.0567  0.2650  1.3582
12067SOL     OW37641   1.647   7.528  10.424  0.6155 -0.2715 -0.1340
12067SOL    HW137642   1.684   7.574  10.348 -1.2909  0.2119 -0.8197
12067SOL    HW237643   1.683   7.440  10.418  2.2885  0.3756 -0.2724
12068SOL     OW37644   6.119   5.660  10.104 -0.6361  0.0726  0.1451
12068SOL    HW137645   6.128   5.723  10.175  0.0153 -1.1689  1.2143
12068SOL    HW237646   6.027   5.666  10.078 -0.2874  2.4714 -0.8064
12069SOL     OW37647   2.296   6.483   1.508 -0.7606 -0.0902 -0.5579
12069SOL    HW137648   2.313   6.417   1.575 -0.7838 -1.4205 -1.8324
12069SOL    HW237649   2.249   6.552   1.555 -0.9081 -1.0418  0.7677
12070SOL     OW37650   2.366   4.073   0.763  0.0020  0.1330 -0.0099
12070SOL    HW137651   2.446   4.046   0.717  0.5776  1.3648  0.2059
12070SOL    HW237652   2.368   4.169   0.759 -0.3791  0.2499  1.8342
12071SOL     OW37653   4.110   4.306  10.701 -0.1862 -0.4190 -0.0848
12071SOL    HW137654   4.094   4.302  10.795 -0.5603  0.0356 -0.1219
12071SOL    HW237655   4.197   4.346  10.693  0.0072 -0.8095  0.0754
12072SOL     OW37656   1.951   1.254   1.391 -0.5032 -0.5191 -0.2350
12072SOL    HW137657   1.968   1.159   1.391  0.1283 -0.4161  0.2571
12072SOL    HW237658   2.001   1.286   1.315 -0.7263 -0.5776 -0.4087
12073SOL     OW37659   1.070   7.428  11.563  0.1714  0.2122 -0.8640
12073SOL    HW137660   1.157   7.426  11.524  0.5209  0.7037 -0.1280
12073SOL    HW237661   1.024   7.498  11.517  0.8635  1.3715  0.1545
12074SOL     OW37662   7.736   0.584   8.964 -0.6054  0.2140  0.3649
12074SOL    HW137663   7.753   0.501   9.010  0.0552 -0.0185 -0.2713
12074SOL    HW237664   7.757   0.564   8.873 -0.3560  1.1112  0.2242
12075SOL     OW37665   6.573   2.771   8.463 -0.8585 -0.0768  0.2891
12075SOL    HW137666   6.479   2.760   8.456 -0.7252 -1.0566 -0.1018
12075SOL    HW237667   6.585   2.860   8.497 -1.9325 -0.1999  1.0099
12076SOL     OW37668   0.659   4.384   9.860 -0.2940  0.5429  0.4254
12076SOL    HW137669   0.597   4.403   9.789  0.7975 -0.5882 -0.9040
12076SOL    HW237670   0.740   4.427   9.833  0.2752 -0.3230  0.7255
12077SOL     OW37671   4.150   7.882   6.820 -0.1791  0.0102 -0.4751
12077SOL    HW137672   4.136   7.845   6.733 -2.7123 -0.9011  0.2601
12077SOL    HW237673   4.096   7.961   6.822 -0.2793 -0.0693  0.3464
12078SOL     OW37674   4.794   3.377   5.085  0.1893 -1.0603  0.6364
12078SOL    HW137675   4.727   3.426   5.037 -0.3855 -0.3001  2.1569
12078SOL    HW237676   4.868   3.373   5.025 -0.1297  0.7258  0.0593
12079SOL     OW37677   3.536   1.915   2.235  0.1779  0.4665  0.4568
12079SOL    HW137678   3.446   1.918   2.203 -0.0522 -1.0262  0.9000
12079SOL    HW237679   3.532   1.956   2.322  0.0602  0.9941  0.2048
12080SOL     OW37680   1.504   2.922   3.384  0.1012  0.1713 -0.5688
12080SOL    HW137681   1.578   2.971   3.418  0.0325  1.9010 -2.6518
12080SOL    HW237682   1.538   2.878   3.306 -0.6953 -0.2195 -0.7047
12081SOL     OW37683   1.763   1.905   0.007 -0.1197 -0.4545  0.0203
12081SOL    HW137684   1.800   1.843  -0.055 -0.2385  0.2862 -0.8133
12081SOL    HW237685   1.681   1.933  -0.033 -1.5928 -1.9829  1.7789
12082SOL     OW37686   5.409   5.863  12.081  0.1636  0.7133 -0.5069
12082SOL    HW137687   5.469   5.915  12.134 -0.1791  1.1290 -0.5173
12082SOL    HW237688   5.431   5.772  12.101  0.2229  0.8637  0.1327
12083SOL     OW37689   0.276   5.163   5.767  0.7530  0.2863 -0.8081
12083SOL    HW137690   0.271   5.190   5.675  0.6774  1.5460 -0.4555
12083SOL    HW237691   0.266   5.068   5.765 -3.4126  0.5485 -1.8182
12084SOL     OW37692   7.690   0.217   2.929  0.0846  0.6394 -0.3133
12084SOL    HW137693   7.734   0.145   2.974 -0.3506  0.5155 -0.0780
12084SOL    HW237694   7.613   0.177   2.888  1.9031  0.1391 -3.6147
12085SOL     OW37695   4.609   3.021   1.680 -0.5084 -0.2078  0.2710
12085SOL    HW137696   4.703   3.040   1.673 -0.3177 -1.4811 -1.0390
12085SOL    HW237697   4.586   3.050   1.768  1.6651 -2.0389  1.5647
12086SOL     OW37698   6.097   4.846   8.301 -0.1748 -0.1146  0.6495
12086SOL    HW137699   6.133   4.920   8.349  0.1640 -0.0927  0.3731
12086SOL    HW237700   6.008   4.835   8.334  0.8948 -1.8543  3.3020
12087SOL     OW37701   7.521   7.273   2.414 -0.3192 -0.3278  0.2722
12087SOL    HW137702   7.479   7.325   2.482 -1.1062  0.3014 -0.6618
12087SOL    HW237703   7.513   7.183   2.443 -1.7377 -0.1679  0.4426
12088SOL     OW37704   1.400   3.812  11.310  0.1955 -0.3360 -0.6441
12088SOL    HW137705   1.425   3.750  11.378 -0.1094  1.2924  1.0153
12088SOL    HW237706   1.478   3.821  11.256  1.4766  0.5952  1.2710
12089SOL     OW37707   0.367   6.006   1.684 -0.4096  0.2343 -0.2508
12089SOL    HW137708   0.336   5.918   1.666 -0.9644  0.3019  0.3425
12089SOL    HW237709   0.416   5.998   1.766  1.3278  0.0943 -1.2432
12090SOL     OW37710   5.447   3.108  10.871 -0.2091  0.1270 -0.2540
12090SOL    HW137711   5.488   3.046  10.810 -1.6719  0.2209 -1.3859
12090SOL    HW237712   5.375   3.059  10.910 -0.3278  0.6025  0.1262
12091SOL     OW37713   2.116   5.160   4.813 -0.0974  0.3639  0.2243
12091SOL    HW137714   2.027   5.125   4.810  0.0889 -0.1818  0.7694
12091SOL    HW237715   2.172   5.082   4.806  0.4211  0.8769 -3.2598
12092SOL     OW37716   2.008   5.773   1.939  0.3978 -0.0272  0.8007
12092SOL    HW137717   1.935   5.824   1.975 -0.5167 -0.6475 -0.0968
12092SOL    HW237718   2.074   5.838   1.916 -0.5993  0.7461  0.0106
12093SOL     OW37719   5.731   7.373   4.570 -0.1526  0.6525 -0.5780
12093SOL    HW137720   5.732   7.295   4.514 -1.7089  0.7627 -0.7927
12093SOL    HW237721   5.664   7.354   4.636  1.2496  0.7601  0.9671
12094SOL     OW37722   3.565   7.919   7.462 -0.3148 -0.7372  0.0456
12094SOL    HW137723   3.562   7.974   7.541 -0.7299  0.9592 -1.1001
12094SOL    HW237724   3.481   7.935   7.419 -0.4032 -2.2206 -0.3879
12095SOL     OW37725   6.489   3.580   0.094  0.1337  0.2201  0.7860
12095SOL    HW137726   6.576   3.543   0.077  0.3641  1.9715 -2.9149
12095SOL    HW237727   6.505   3.673   0.109 -1.0405  0.5963 -0.0792
12096SOL     OW37728   6.352   0.075   2.627 -0.1972 -0.1576 -0.0733
12096SOL    HW137729   6.286   0.023   2.581 -0.9918  0.0065  0.8424
12096SOL    HW237730   6.357   0.157   2.576 -1.7693  0.4224  0.6139
12097SOL     OW37731   4.770   5.669   0.041 -0.2552  0.3266 -0.3978
12097SOL    HW137732   4.749   5.580   0.068  1.7344 -0.3413 -0.8801
12097SOL    HW237733   4.701   5.723   0.079 -0.0813 -1.0976  2.1863
12098SOL     OW37734   3.071   3.469  10.273 -0.0269  0.0162  0.2478
12098SOL    HW137735   3.117   3.521  10.339  0.0414 -0.3897  0.5217
12098SOL    HW237736   3.139   3.411  10.237 -0.4459 -1.0293  1.0911
12099SOL     OW37737   6.707   1.086   6.749  0.5544  0.3630 -0.0354
12099SOL    HW137738   6.613   1.085   6.765  0.2317  0.3204 -1.7322
12099SOL    HW237739   6.716   1.066   6.655  2.2205  1.0032 -0.0537
12100SOL     OW37740   2.430   7.143   8.512 -0.1223  0.2914  0.4999
12100SOL    HW137741   2.431   7.054   8.548 -1.2658  0.7541  1.7333
12100SOL    HW237742   2.467   7.197   8.581  0.9048  0.7650 -0.3838
12101SOL     OW37743   0.465   7.564  12.052 -0.4816 -0.3428 -0.0485
12101SOL    HW137744   0.538   7.521  12.007  0.0997  1.4216 -0.8425
12101SOL    HW237745   0.413   7.602  11.982 -1.2208 -0.0960  0.6227
12102SOL     OW37746   3.105   1.476  11.004 -0.3983 -0.0323  0.5241
12102SOL    HW137747   3.200   1.486  10.993 -0.7057  2.5560 -0.6301
12102SOL    HW237748   3.079   1.416  10.934  0.4260 -1.2257  1.2056
12103SOL     OW37749   4.180   0.814   4.469 -0.2791  0.2245  0.0398
12103SOL    HW137750   4.122   0.803   4.394  0.0796 -0.0690 -0.2020
12103SOL    HW237751   4.128   0.786   4.544 -1.0308  1.5994  0.0663
12104SOL     OW37752   6.387   6.674  10.843 -0.4097  0.2684  0.3739
12104SOL    HW137753   6.453   6.605  10.848 -1.7528 -1.1292 -0.6509
12104SOL    HW237754   6.439   6.755  10.840  1.2064 -0.6686  1.2021
12105SOL     OW37755   5.920   0.266   7.135 -0.0473  0.0184  0.3504
12105SOL    HW137756   5.939   0.182   7.093 -0.0826 -0.0934  0.5540
12105SOL    HW237757   5.838   0.250   7.183 -0.9110  0.6133 -0.8706
12106SOL     OW37758   0.319   4.446  11.373 -0.1939  0.3734  0.1359
12106SOL    HW137759   0.374   4.406  11.440  0.6486  0.1080 -0.6783
12106SOL    HW237760   0.366   4.526  11.348 -0.0628  0.0522 -0.6989
12107SOL     OW37761   7.483   5.364   1.959  0.0909  0.7774  0.2849
12107SOL    HW137762   7.402   5.346   1.911  0.2640  2.9373 -0.9775
12107SOL    HW237763   7.456   5.418   2.033  0.3658  1.7114 -0.2766
12108SOL     OW37764   1.617   6.222   3.781 -0.3325 -0.2953  0.1062
12108SOL    HW137765   1.698   6.273   3.785 -0.8748  0.5869 -0.0661
12108SOL    HW237766   1.640   6.147   3.726  0.1102  0.4308 -0.7294
12109SOL     OW37767   6.243   1.060   2.369  0.3781  0.2380  0.5561
12109SOL    HW137768   6.293   1.107   2.303  1.3134  0.1184  1.1591
12109SOL    HW237769   6.246   1.116   2.446  0.7587 -0.4125  1.0149
12110SOL     OW37770   6.665   4.526   1.807 -0.3234  0.1036 -0.5707
12110SOL    HW137771   6.750   4.569   1.819 -0.2998 -0.1610  0.2714
12110SOL    HW237772   6.644   4.490   1.893 -0.1841 -1.8546 -1.2950
12111SOL     OW37773   5.583   4.667   9.490  0.0601 -0.1724  0.0205
12111SOL    HW137774   5.491   4.681   9.467  0.1315 -0.5527 -0.5340
12111SOL    HW237775   5.630   4.681   9.408  0.3719 -1.1088  0.0251
12112SOL     OW37776   4.407   6.757   9.035 -0.1700  0.1363 -0.3376
12112SOL    HW137777   4.312   6.745   9.028  0.1671 -4.3647  0.0367
12112SOL    HW237778   4.423   6.760   9.130  0.2278 -2.5781 -0.2558
12113SOL     OW37779   2.091   5.700  11.815 -0.3871  0.3465 -0.3792
12113SOL    HW137780   2.116   5.627  11.758 -0.8701 -0.1263  0.0124
12113SOL    HW237781   2.009   5.672  11.856 -0.6988  1.2040 -0.4005
12114SOL     OW37782   4.208   2.256   3.524 -0.1735 -0.2731 -0.2419
12114SOL    HW137783   4.263   2.209   3.587 -0.4012 -0.1905  0.0190
12114SOL    HW237784   4.120   2.220   3.536 -0.2709 -0.0698 -0.3252
12115SOL     OW37785   3.992   6.238   4.961  0.2073 -0.0659 -0.3639
12115SOL    HW137786   4.067   6.292   4.984  0.1759  0.1398 -0.7441
12115SOL    HW237787   4.018   6.149   4.984 -0.1354  0.2226  1.2750
12116SOL     OW37788   6.183   6.094   9.582 -0.3918  0.6137  0.4410
12116SOL    HW137789   6.095   6.132   9.590 -0.3218  0.9272 -0.2636
12116SOL    HW237790   6.172   6.003   9.612 -1.2196  0.3048 -0.7354
12117SOL     OW37791   0.942   0.996  12.065  0.6022 -0.0211 -0.3766
12117SOL    HW137792   1.026   1.041  12.077  0.4186 -0.0841  1.4114
12117SOL    HW237793   0.963   0.903  12.072  0.6907 -0.1869 -2.2201
12118SOL     OW37794   6.358   5.125   2.694 -0.0804  0.1097  0.4334
12118SOL    HW137795   6.390   5.070   2.766  0.0454  0.6506  0.7923
12118SOL    HW237796   6.433   5.133   2.635 -0.4527 -1.1071 -0.2463
12119SOL     OW37797   7.915   0.272   0.112 -0.5615  0.8380 -0.2601
12119SOL    HW137798   7.825   0.286   0.141 -0.1984 -0.5239  1.7189
12119SOL    HW237799   7.909   0.206   0.043 -1.1022  1.0728 -0.4388
12120SOL     OW37800   1.630   7.349   1.717 -0.1412 -0.1756 -0.1954
12120SOL    HW137801   1.719   7.384   1.707  1.0219 -2.7387  0.2610
12120SOL    HW237802   1.580   7.388   1.645  1.8578 -0.1372 -1.6427
12121SOL     OW37803   3.938   3.159   0.130 -0.5175 -0.1973 -0.2942
12121SOL    HW137804   3.886   3.093   0.176 -0.4914  1.0735  1.7246
12121SOL    HW237805   3.992   3.198   0.198  0.1213  1.2805 -1.5859
12122SOL     OW37806   1.867   6.350   1.668  0.0327  0.4024 -0.1455
12122SOL    HW137807   1.859   6.307   1.583 -0.1914 -0.0449  0.0949
12122SOL    HW237808   1.895   6.280   1.728  1.8265  1.0566 -0.1637
12123SOL     OW37809   3.819   4.885   3.151 -0.4758 -0.3726 -0.3465
12123SOL    HW137810   3.826   4.927   3.236 -0.3032 -0.6251 -0.2379
12123SOL    HW237811   3.755   4.939   3.103 -0.1314  0.1120 -0.2678
12124SOL     OW37812   5.901   1.206   0.509  0.0569  0.4465  0.2708
12124SOL    HW137813   5.860   1.287   0.481 -0.4678  0.0170 -0.2166
12124SOL    HW237814   5.919   1.219   0.602 -1.5131  0.5103  0.5804
12125SOL     OW37815   4.972   2.833   7.470 -0.4641  0.2381  0.2678
12125SOL    HW137816   4.891   2.785   7.485  0.5242 -2.4223 -2.0096
12125SOL    HW237817   4.944   2.922   7.451 -2.6032  0.0323  2.0890
12126SOL     OW37818   5.643   2.983   8.357  0.0282 -0.5414  0.1584
12126SOL    HW137819   5.720   2.927   8.356  0.0430 -0.5312  0.5523
12126SOL    HW237820   5.591   2.955   8.282 -0.5542 -1.9055  1.0372
12127SOL     OW37821   2.861   6.345   6.290 -1.2799 -0.0886  0.1475
12127SOL    HW137822   2.891   6.255   6.280 -1.7857 -0.4170  1.4359
12127SOL    HW237823   2.942   6.397   6.293 -1.0118 -0.2613 -2.3567
12128SOL     OW37824   1.230   4.461  10.798 -0.1534  0.5572  0.4117
12128SOL    HW137825   1.142   4.439  10.765 -0.1689  0.0705  0.7681
12128SOL    HW237826   1.289   4.441  10.725 -0.3747  1.2759  0.0239
12129SOL     OW37827   3.376   1.851   4.072  0.3857 -0.2413 -0.0871
12129SOL    HW137828   3.401   1.799   3.996 -0.7477 -1.4248  0.3234
12129SOL    HW237829   3.458   1.865   4.119  0.7791 -1.3304 -0.4145
12130SOL     OW37830   6.808   7.246   7.406  0.0298 -1.0006  0.1790
12130SOL    HW137831   6.813   7.292   7.490  2.2818 -0.8372  0.0243
12130SOL    HW237832   6.804   7.316   7.341 -3.1305 -1.1132  0.1004
12131SOL     OW37833   3.170   5.343   6.677  0.0902 -0.0953 -0.2386
12131SOL    HW137834   3.264   5.361   6.673 -0.1634  1.3325 -0.2231
12131SOL    HW237835   3.150   5.302   6.592  0.3074  1.8584 -1.3024
12132SOL     OW37836   1.757   2.691   8.303  0.0519 -0.4639 -0.0657
12132SOL    HW137837   1.767   2.757   8.234  0.2375 -1.0245 -0.5866
12132SOL    HW237838   1.756   2.608   8.256 -2.1903 -0.7580  0.3736
12133SOL     OW37839   4.278   0.791   5.585 -0.0513  0.1164 -0.3417
12133SOL    HW137840   4.328   0.829   5.513 -0.4175  0.5516 -0.3720
12133SOL    HW237841   4.344   0.755   5.644  0.2194 -2.4620 -2.0436
12134SOL     OW37842   3.554   2.344   4.811 -0.1674 -0.3828 -0.6962
12134SOL    HW137843   3.577   2.437   4.813  2.7857 -0.9970 -0.8467
12134SOL    HW237844   3.633   2.299   4.842 -1.2867 -2.8962 -1.2026
12135SOL     OW37845   6.053   0.973   5.113  0.4581 -0.0790  0.7672
12135SOL    HW137846   6.145   0.948   5.106  0.6544  0.6759  0.5681
12135SOL    HW237847   6.040   1.039   5.045  0.0694  0.6805  1.5488
12136SOL     OW37848   4.040   2.976  10.180  0.0220 -0.4501  0.1459
12136SOL    HW137849   4.036   3.069  10.159  1.1048 -0.1777  1.0804
12136SOL    HW237850   4.132   2.953  10.171  0.1916 -0.8275  2.2899
12137SOL     OW37851   5.064   3.417   9.584  0.1711 -0.9246  0.4368
12137SOL    HW137852   4.984   3.377   9.551 -0.4132 -0.2626  1.0368
12137SOL    HW237853   5.042   3.448   9.672  0.8512 -0.0366  0.3100
12138SOL     OW37854   1.037   0.356   4.465  0.0097  0.5096 -0.0696
12138SOL    HW137855   1.052   0.449   4.450  0.1255  0.5776  0.4628
12138SOL    HW237856   0.967   0.333   4.403  0.2799  0.8470 -0.5078
12139SOL     OW37857   2.511   5.478  11.487 -0.6819  1.2691  0.1956
12139SOL    HW137858   2.508   5.572  11.505  0.6307  1.0092  2.0094
12139SOL    HW237859   2.431   5.443  11.528 -0.8017  1.4929  0.1537
12140SOL     OW37860   7.707   5.131   7.648  0.0449  0.3705 -0.4647
12140SOL    HW137861   7.724   5.042   7.616 -1.2154  0.0814 -0.3689
12140SOL    HW237862   7.794   5.166   7.668  0.8446  0.2515 -3.3046
12141SOL     OW37863   6.579   1.359   9.043 -0.4142 -0.0020 -0.3296
12141SOL    HW137864   6.610   1.306   9.116 -2.1726 -0.4419  0.1397
12141SOL    HW237865   6.503   1.405   9.077 -0.7579  0.4440 -1.6520
12142SOL     OW37866   0.898   1.356   8.838  0.0099  0.4101 -0.7077
12142SOL    HW137867   0.804   1.369   8.829 -0.3522 -0.9446  0.6490
12142SOL    HW237868   0.909   1.261   8.843  1.3217  0.5868  0.3675
12143SOL     OW37869   7.534   5.147  11.735 -0.0170  0.0977 -0.1798
12143SOL    HW137870   7.589   5.091  11.680 -0.6095 -2.2484  1.4732
12143SOL    HW237871   7.485   5.086  11.790 -0.4214  2.2522  2.0232
12144SOL     OW37872   6.762   7.132   3.938  0.3223 -0.4374 -0.2277
12144SOL    HW137873   6.703   7.200   3.972  0.0869  0.7825 -2.8553
12144SOL    HW237874   6.721   7.050   3.965 -1.1032  0.4159  0.3411
12145SOL     OW37875   1.705   2.896   5.804  0.1366 -0.1485 -0.6247
12145SOL    HW137876   1.735   2.984   5.783 -0.3933 -0.1992 -1.6607
12145SOL    HW237877   1.764   2.838   5.756  0.0367 -0.3291 -0.5317
12146SOL     OW37878   3.466   1.840   1.824 -0.2617 -0.3667  0.2887
12146SOL    HW137879   3.507   1.916   1.782 -2.4917  0.7710 -0.0040
12146SOL    HW237880   3.499   1.765   1.775  2.0657  0.3527  0.6245
12147SOL     OW37881   2.765   0.009   5.998  0.2530  0.7608  0.2229
12147SOL    HW137882   2.682   0.014   5.952  0.2343  1.7063  0.3430
12147SOL    HW237883   2.748   0.049   6.083  0.3659 -0.6693  0.9586
12148SOL     OW37884   0.043   6.716   5.550 -0.7459  0.5054  0.5978
12148SOL    HW137885  -0.015   6.768   5.495 -1.1527 -0.0476  0.4941
12148SOL    HW237886   0.127   6.761   5.547 -1.0920  1.1507  0.5111
12149SOL     OW37887   2.143   7.014   9.255 -0.4065 -0.1324  0.3182
12149SOL    HW137888   2.142   7.094   9.307 -0.3072 -0.7132  1.2441
12149SOL    HW237889   2.105   6.948   9.313 -0.6053 -0.7285 -0.4750
12150SOL     OW37890   2.230   2.113   8.848  0.3626 -0.9986 -0.4708
12150SOL    HW137891   2.303   2.166   8.818 -0.2823 -0.0069 -0.3425
12150SOL    HW237892   2.264   2.063   8.921  0.5077  0.6736  0.6548
12151SOL     OW37893   1.006   5.301   7.308  0.9173  0.2048 -0.1151
12151SOL    HW137894   0.982   5.390   7.284  0.4903 -0.2411 -1.4187
12151SOL    HW237895   1.015   5.255   7.225  0.5194 -1.1320  0.5458
12152SOL     OW37896   3.864   6.502   7.691 -0.1117 -0.1822 -0.1683
12152SOL    HW137897   3.795   6.437   7.685 -0.3823  0.0257  0.6555
12152SOL    HW237898   3.916   6.488   7.611 -1.6015  0.2541 -1.2628
12153SOL     OW37899   3.242   6.020   9.745  0.1540  0.4451  0.2751
12153SOL    HW137900   3.319   5.969   9.769  1.2331  1.1571 -1.5051
12153SOL    HW237901   3.183   6.011   9.820  2.0481  0.0796  1.8009
12154SOL     OW37902   6.388   4.424   8.399 -0.0279 -0.3581 -0.3078
12154SOL    HW137903   6.310   4.368   8.406 -0.3345  0.1484  0.5623
12154SOL    HW237904   6.364   4.503   8.447  1.1835 -0.3755  0.3647
12155SOL     OW37905   0.984   2.829   6.136  0.3152  0.6664 -0.3068
12155SOL    HW137906   0.940   2.861   6.216 -1.2653 -1.6190 -0.1651
12155SOL    HW237907   1.024   2.746   6.162 -2.6107 -1.6338 -2.3707
12156SOL     OW37908   1.586   7.809   8.035  0.2876  0.3737  0.3544
12156SOL    HW137909   1.600   7.727   8.083  0.3793  0.2777  0.1614
12156SOL    HW237910   1.612   7.877   8.097 -0.7296  0.3074  0.8768
12157SOL     OW37911   2.595   1.672  10.169 -0.1617  0.0224  0.0043
12157SOL    HW137912   2.608   1.591  10.119 -0.0303  0.1083 -0.1036
12157SOL    HW237913   2.607   1.741  10.105 -0.5411  0.1220  0.0384
12158SOL     OW37914   5.383   3.937   8.721 -0.7911 -0.3124  0.2306
12158SOL    HW137915   5.472   3.913   8.696 -0.7609  0.4871 -0.4735
12158SOL    HW237916   5.340   3.854   8.740  0.0922 -0.7093  0.5558
12159SOL     OW37917   7.272   5.425   9.192  0.5185 -0.4284  0.1703
12159SOL    HW137918   7.326   5.495   9.155  1.4266  0.7175  3.3719
12159SOL    HW237919   7.334   5.358   9.218  0.0932 -0.4915  1.0489
12160SOL     OW37920   1.389   6.173  10.226  0.5956  0.7465 -0.3692
12160SOL    HW137921   1.451   6.145  10.158 -0.0485  3.9972 -2.5164
12160SOL    HW237922   1.440   6.168  10.307  1.9058 -1.7257 -1.2196
12161SOL     OW37923   6.102   5.230   0.632 -0.3122  0.0653  0.4049
12161SOL    HW137924   6.133   5.161   0.572  0.0126 -0.2237  0.8954
12161SOL    HW237925   6.008   5.213   0.641 -0.5549  0.6709 -0.7349
12162SOL     OW37926   2.640   0.754   2.794  0.7364 -0.0581 -0.3811
12162SOL    HW137927   2.647   0.814   2.720  0.7129 -0.0196 -0.3518
12162SOL    HW237928   2.670   0.804   2.869  3.0664 -0.8132 -0.7282
12163SOL     OW37929   0.521   7.338  10.284 -0.4137 -0.5040  0.0455
12163SOL    HW137930   0.486   7.251  10.264  0.6361 -0.6134 -1.4991
12163SOL    HW237931   0.489   7.357  10.372 -1.0296 -2.2575  0.2425
12164SOL     OW37932   7.485   2.819   2.515 -0.1166  0.3125 -0.3742
12164SOL    HW137933   7.482   2.850   2.605 -3.2107  1.0574 -0.5968
12164SOL    HW237934   7.474   2.724   2.521  1.1569  0.1756  0.0389
12165SOL     OW37935   5.252   1.574  11.185  0.3264 -0.1634  0.0049
12165SOL    HW137936   5.229   1.498  11.131  0.7392  0.1325 -0.5974
12165SOL    HW237937   5.341   1.597  11.157  0.2699  0.4304  0.3069
12166SOL     OW37938   4.647   0.616   6.011 -0.2588 -0.4240  0.0604
12166SOL    HW137939   4.710   0.565   5.960  0.0382  0.3105 -0.3250
12166SOL    HW237940   4.651   0.704   5.973  1.0974  0.5826  2.2669
12167SOL     OW37941   3.238   1.051   1.516  0.6143  0.1308 -0.2523
12167SOL    HW137942   3.175   1.105   1.470 -2.0968 -1.8068  0.9433
12167SOL    HW237943   3.235   0.966   1.472 -0.4177 -1.0865  1.9531
12168SOL     OW37944   6.715   0.686   0.840  0.1380 -0.3667  0.1608
12168SOL    HW137945   6.695   0.676   0.933  0.3205 -0.0189  0.2395
12168SOL    HW237946   6.630   0.690   0.797  0.0431 -0.0248  0.3716
12169SOL     OW37947   7.133   2.252   0.949 -0.4033  0.8534 -0.3562
12169SOL    HW137948   7.148   2.210   0.865  1.8194 -0.4622  0.6033
12169SOL    HW237949   7.221   2.263   0.986 -1.2841  1.7976  1.5991
12170SOL     OW37950   7.744   3.791   5.755  0.5017 -0.3047 -0.0928
12170SOL    HW137951   7.749   3.827   5.666  1.3592  1.9475  0.7917
12170SOL    HW237952   7.735   3.868   5.811  1.8522 -1.5307  1.9187
12171SOL     OW37953   5.251   4.355  11.038 -0.2670  0.3133  0.0496
12171SOL    HW137954   5.303   4.421  11.084 -0.3195 -0.8252  1.8276
12171SOL    HW237955   5.313   4.314  10.978  0.2610  0.6616  0.3506
12172SOL     OW37956   0.109   6.638  10.408 -0.5930  0.5067  0.4508
12172SOL    HW137957   0.068   6.724  10.409  0.2906  0.9539 -0.4794
12172SOL    HW237958   0.195   6.652  10.369 -0.7913 -0.9441 -0.6245
12173SOL     OW37959   7.598   6.712   1.054  0.1785 -0.0529 -0.3249
12173SOL    HW137960   7.578   6.635   1.001  1.7672 -1.1246  0.5189
12173SOL    HW237961   7.514   6.753   1.072 -0.5792 -0.9036 -1.8217
12174SOL     OW37962   6.364   0.606   0.120 -0.1654 -0.2798 -0.3414
12174SOL    HW137963   6.446   0.604   0.170 -1.3124 -1.3384  1.6224
12174SOL    HW237964   6.381   0.666   0.047  2.2363 -0.2422  0.1875
12175SOL     OW37965   0.771   1.300   2.444 -0.2544 -0.1523 -0.3632
12175SOL    HW137966   0.692   1.353   2.448 -0.1490  0.0639 -1.0006
12175SOL    HW237967   0.843   1.363   2.455 -0.0988 -0.0333 -1.8457
12176SOL     OW37968   0.485   2.029   7.353  0.0643  0.5899  0.1057
12176SOL    HW137969   0.416   1.993   7.409  0.2072  1.6467  0.9756
12176SOL    HW237970   0.566   2.018   7.404  0.4592 -0.0420 -0.6344
12177SOL     OW37971   7.325   2.676   6.277 -0.7706  0.2043  0.0914
12177SOL    HW137972   7.330   2.766   6.245 -0.1905  0.1526  0.0273
12177SOL    HW237973   7.250   2.638   6.232 -0.8716  0.5888 -0.0602
12178SOL     OW37974   0.775   1.702   2.044  0.0215 -0.0366  0.2380
12178SOL    HW137975   0.843   1.717   1.978  1.1595 -0.3515  1.2874
12178SOL    HW237976   0.799   1.759   2.117 -1.1930  0.2863  0.3968
12179SOL     OW37977   2.215   7.466   3.097 -0.0995  0.6130 -0.5483
12179SOL    HW137978   2.161   7.391   3.123 -0.4105  1.4291  1.2478
12179SOL    HW237979   2.188   7.483   3.006 -1.5099 -0.1737 -0.3168
12180SOL     OW37980   0.536   3.257   0.101 -0.0927 -0.5218 -0.4311
12180SOL    HW137981   0.469   3.324   0.088  0.8431  0.2724 -1.3323
12180SOL    HW237982   0.574   3.243   0.014 -0.4797 -2.4799 -0.3417
12181SOL     OW37983   1.448   1.452   1.123 -0.3523  0.1380  0.6883
12181SOL    HW137984   1.393   1.513   1.172 -0.7621 -1.1713  1.9598
12181SOL    HW237985   1.538   1.482   1.138 -0.6012  1.0061  0.4512
12182SOL     OW37986   7.021   2.296   3.790 -0.0903  0.3269  0.7151
12182SOL    HW137987   7.090   2.280   3.726  0.6287  0.4824  1.4308
12182SOL    HW237988   6.964   2.361   3.748  0.4467  0.5287  0.2904
12183SOL     OW37989   3.828   5.927   3.878  0.0687 -0.6986 -0.6400
12183SOL    HW137990   3.922   5.910   3.866  0.2142 -0.3321 -0.0654
12183SOL    HW237991   3.823   6.022   3.892  0.2819 -1.1286  4.6427
12184SOL     OW37992   4.930   1.736   7.584 -0.0137 -1.0602 -0.0744
12184SOL    HW137993   5.000   1.730   7.518  0.0728 -0.3237 -0.0592
12184SOL    HW237994   4.878   1.812   7.556 -0.1702 -0.9463  0.5220
12185SOL     OW37995   5.241   2.471   9.619 -0.2830 -0.1215 -0.7240
12185SOL    HW137996   5.238   2.480   9.714 -0.1219  0.8194 -0.7991
12185SOL    HW237997   5.196   2.388   9.601 -0.1355 -0.4074  0.1813
12186SOL     OW37998   4.548   0.953   9.268 -0.2526 -0.2829  0.2459
12186SOL    HW137999   4.511   1.041   9.276  0.7749  0.1825  0.0211
12186SOL    HW238000   4.535   0.914   9.354  0.0485  0.4081  0.6195
12187SOL     OW38001   3.346   5.848  11.172  0.1448 -0.5192 -0.1430
12187SOL    HW138002   3.295   5.768  11.155 -0.6953 -0.1993  0.7560
12187SOL    HW238003   3.346   5.894  11.089  0.2535 -1.2502 -0.5563
12188SOL     OW38004   0.218   0.966   0.337  0.1820  0.1966  0.5429
12188SOL    HW138005   0.185   0.895   0.392  2.6675  0.0105  1.9468
12188SOL    HW238006   0.245   0.923   0.256  2.6115 -0.7391  1.7614
12189SOL     OW38007   1.747   4.395   0.197  0.1182  0.1768 -0.0447
12189SOL    HW138008   1.780   4.413   0.109 -0.9134 -1.1008 -0.7229
12189SOL    HW238009   1.820   4.354   0.243  1.3638  2.6914  0.4256
12190SOL     OW38010   0.915   4.902  12.244  0.3549 -0.0579 -0.2345
12190SOL    HW138011   0.912   4.906  12.339  0.0960 -1.1526 -0.1918
12190SOL    HW238012   0.832   4.940  12.215  0.2738 -0.0782 -0.0223
12191SOL     OW38013   7.593   3.809   1.031  0.5863  0.2991 -0.3451
12191SOL    HW138014   7.525   3.875   1.020  0.6793  0.3938 -0.3521
12191SOL    HW238015   7.667   3.857   1.070 -0.2491 -0.2987  2.1350
12192SOL     OW38016   3.585   4.366   0.096  0.5257  0.2663  0.4257
12192SOL    HW138017   3.512   4.329   0.046  0.7741  0.4194 -0.0546
12192SOL    HW238018   3.650   4.390   0.030  0.2373  1.8852  0.6928
12193SOL     OW38019   5.319   5.254   9.407  0.0651 -0.4327 -0.6195
12193SOL    HW138020   5.327   5.250   9.312 -0.1691 -0.2497 -0.6489
12193SOL    HW238021   5.383   5.320   9.434 -0.0404 -0.3076 -0.6747
12194SOL     OW38022   3.139   2.757   6.780  0.0821 -0.2166  0.0828
12194SOL    HW138023   3.182   2.750   6.694 -1.7649 -0.9932 -0.8328
12194SOL    HW238024   3.211   2.764   6.842  1.5296 -1.3204 -1.3895
12195SOL     OW38025   1.196   7.432   2.160  0.4375 -1.0357 -0.2777
12195SOL    HW138026   1.207   7.375   2.237  0.1133 -0.2363  0.3696
12195SOL    HW238027   1.206   7.521   2.194  0.8607 -0.6899 -1.2699
12196SOL     OW38028   1.335   6.154  12.288 -0.1239 -0.1778  0.0090
12196SOL    HW138029   1.370   6.230  12.243  2.8974 -1.4846 -0.0796
12196SOL    HW238030   1.375   6.157  12.375 -1.5856 -0.5858  0.7204
12197SOL     OW38031   4.338   2.552   5.655  0.1799 -0.6181 -0.0201
12197SOL    HW138032   4.265   2.535   5.715 -0.0690  0.7955  0.1223
12197SOL    HW238033   4.409   2.582   5.711 -0.2708  1.3934 -0.4231
12198SOL     OW38034   2.335   7.452   0.750 -0.1092  0.3664  0.0501
12198SOL    HW138035   2.327   7.494   0.664 -1.8753 -1.4724 -0.7584
12198SOL    HW238036   2.426   7.420   0.752  0.7088  2.5486 -0.0491
12199SOL     OW38037   5.072   1.795   4.594  0.0824  0.2958  0.0352
12199SOL    HW138038   5.071   1.794   4.499  0.5430  0.1306  0.0296
12199SOL    HW238039   4.982   1.774   4.619  0.2492 -0.9457 -0.3620
12200SOL     OW38040   1.437   6.573   5.627  0.7816 -0.1168 -0.0270
12200SOL    HW138041   1.432   6.655   5.675 -0.3021 -0.1343 -0.0984
12200SOL    HW238042   1.363   6.521   5.658  0.5456 -0.4574 -1.0886
12201SOL     OW38043   1.696   0.649  10.687  0.2600  0.1552  0.0115
12201SOL    HW138044   1.609   0.689  10.687 -0.3172 -1.0146  1.6487
12201SOL    HW238045   1.752   0.712  10.732  0.2073  0.7535 -0.7343
12202SOL     OW38046   2.236   1.272   6.781  0.2027  0.1251  0.6992
12202SOL    HW138047   2.198   1.217   6.849  0.5897 -1.4423 -0.2986
12202SOL    HW238048   2.232   1.218   6.702  2.4076  0.7606  0.0747
12203SOL     OW38049   3.868   2.190   1.679  0.0720  0.2054  0.1880
12203SOL    HW138050   3.838   2.219   1.593  0.4177  0.1377  0.0423
12203SOL    HW238051   3.837   2.257   1.739  1.4883  1.2706 -0.2283
12204SOL     OW38052   2.884   6.763   8.969 -0.3623  0.1141 -0.2342
12204SOL    HW138053   2.868   6.852   8.998 -0.9890 -0.4397  1.2202
12204SOL    HW238054   2.912   6.772   8.878  0.3068  1.8250  0.1039
12205SOL     OW38055   7.029   4.352   4.874  0.2868  0.4634  0.3511
12205SOL    HW138056   7.054   4.282   4.934  0.5460 -0.0203 -0.3120
12205SOL    HW238057   7.108   4.369   4.823 -0.6142 -0.9482 -1.6406
12206SOL     OW38058   2.582   4.941   3.089 -0.1036  0.0770  0.3190
12206SOL    HW138059   2.514   4.916   3.027  0.7143 -0.9117 -0.2230
12206SOL    HW238060   2.593   5.035   3.077  1.6755 -0.4090 -2.8203
12207SOL     OW38061   7.028   6.799   5.026  0.2525 -0.3021 -0.5197
12207SOL    HW138062   7.104   6.760   5.069  0.2765 -1.6648 -1.7269
12207SOL    HW238063   6.985   6.725   4.982 -0.9995  0.6759 -0.9843
12208SOL     OW38064   1.893   6.867   6.609  0.1898 -0.0672  0.1245
12208SOL    HW138065   1.858   6.952   6.584  2.6350  0.9097 -0.2335
12208SOL    HW238066   1.975   6.887   6.654 -0.0366 -2.1760  1.6381
12209SOL     OW38067   4.573   2.209   8.795 -0.0066  0.3640  0.6675
12209SOL    HW138068   4.575   2.271   8.721 -0.3347 -1.0558 -0.5840
12209SOL    HW238069   4.551   2.263   8.871  0.7188  1.9400 -0.1915
12210SOL     OW38070   6.254   0.999   0.242  0.2687 -0.2233  0.0552
12210SOL    HW138071   6.243   1.043   0.158  1.1787 -0.5325 -0.2396
12210SOL    HW238072   6.204   1.052   0.304  1.9706  1.6936 -0.1367
12211SOL     OW38073   1.868   2.794  11.778  0.5908  0.4971  0.2091
12211SOL    HW138074   1.892   2.887  11.780  1.7300  0.2013  0.9786
12211SOL    HW238075   1.930   2.752  11.838  1.2146 -1.0277 -1.4261
12212SOL     OW38076   3.304   6.630   4.967  0.0661 -0.2130 -0.3390
12212SOL    HW138077   3.254   6.566   5.017  1.6942 -0.9978  0.3733
12212SOL    HW238078   3.380   6.649   5.022  0.7917  0.5830 -1.5692
12213SOL     OW38079   2.597   0.973  10.527  0.1081 -0.7964  0.6697
12213SOL    HW138080   2.681   0.987  10.570 -0.0393 -1.1713  1.0981
12213SOL    HW238081   2.532   0.991  10.595 -0.2134  0.7618 -0.0179
12214SOL     OW38082   3.961   0.249   8.316  0.0356  0.2451 -0.4454
12214SOL    HW138083   3.925   0.185   8.378  1.6884  0.9079  1.3296
12214SOL    HW238084   3.950   0.334   8.360  0.8905  0.7855 -1.2330
12215SOL     OW38085   4.094   3.227  11.989  0.1493 -0.1302 -0.2252
12215SOL    HW138086   4.119   3.137  12.010 -0.7373  0.1882  2.6711
12215SOL    HW238087   4.162   3.281  12.031 -0.4511  0.5760 -0.1499
12216SOL     OW38088   6.188   2.800   2.461 -0.0903  0.1029  0.4017
12216SOL    HW138089   6.273   2.839   2.440  0.9697 -2.0252  0.4073
12216SOL    HW238090   6.159   2.759   2.379 -2.0974  2.3655 -0.1310
12217SOL     OW38091   5.170   1.148   9.707 -0.0318  0.1642 -0.2255
12217SOL    HW138092   5.169   1.219   9.643  0.0672 -0.8757 -1.4313
12217SOL    HW238093   5.254   1.156   9.751 -0.5875  1.6108  0.6507
12218SOL     OW38094   0.066   4.479   3.480  1.0314  0.1837  0.2671
12218SOL    HW138095   0.007   4.551   3.457  1.2214  0.4500  0.6073
12218SOL    HW238096   0.009   4.410   3.511  0.8273  0.0932 -0.3024
12219SOL     OW38097   1.015   4.906   5.081 -0.2817 -0.2791  0.5793
12219SOL    HW138098   1.059   4.904   5.165  0.6680  1.4867  0.1872
12219SOL    HW238099   0.980   4.818   5.069 -1.5933 -0.2575  3.3881
12220SOL     OW38100   6.298   1.225   6.576 -0.1371  0.6792  0.0674
12220SOL    HW138101   6.226   1.278   6.612 -1.0047  0.9361 -1.9368
12220SOL    HW238102   6.254   1.149   6.538  0.9571 -0.7077  1.4535
12221SOL     OW38103   6.728   7.635   6.413  0.0670 -0.3550 -0.5956
12221SOL    HW138104   6.751   7.718   6.372 -0.6656 -0.3410 -0.9831
12221SOL    HW238105   6.641   7.650   6.451  1.0423 -0.0781  1.7591
12222SOL     OW38106   6.121   7.468   5.750  0.2143  0.1975 -0.4655
12222SOL    HW138107   6.047   7.518   5.784 -0.4682 -0.8077 -0.4019
12222SOL    HW238108   6.186   7.469   5.821  0.4704  1.4648 -0.6936
12223SOL     OW38109   1.933   2.079   3.513  0.2969 -0.1171  0.3927
12223SOL    HW138110   1.857   2.115   3.558 -0.0158  0.1983 -0.3671
12223SOL    HW238111   1.922   2.106   3.421  1.4579  0.1885  0.3151
12224SOL     OW38112   4.002   2.987   5.045  0.2289 -0.1364  0.3013
12224SOL    HW138113   4.076   3.046   5.060  1.4955 -1.1159 -1.6465
12224SOL    HW238114   3.954   2.987   5.127  1.6756  1.5452  1.2078
12225SOL     OW38115   0.571   0.911  10.948 -0.1416 -0.1327 -0.0608
12225SOL    HW138116   0.478   0.895  10.961 -0.2099 -0.6078 -1.0256
12225SOL    HW238117   0.588   0.994  10.992 -0.7950 -0.5457  1.0148
12226SOL     OW38118   5.351   5.277   1.620 -0.0001 -0.1959  0.8313
12226SOL    HW138119   5.304   5.206   1.662 -0.4784 -0.1682  0.3504
12226SOL    HW238120   5.353   5.347   1.686 -1.3760  0.1128  0.5757
12227SOL     OW38121   5.453   1.938  10.278 -0.1451  0.5478 -0.0321
12227SOL    HW138122   5.417   2.011  10.227  0.8741  1.9867  1.2247
12227SOL    HW238123   5.522   1.902  10.223  0.7063  1.8597  0.1255
12228SOL     OW38124   1.321   3.272   9.162  0.1799 -0.2266  0.7537
12228SOL    HW138125   1.416   3.279   9.173  0.1431  0.9197  0.4455
12228SOL    HW238126   1.310   3.242   9.072  0.2287  2.0785 -0.0888
12229SOL     OW38127   0.676   2.307   7.458 -0.2971 -0.3089 -0.2825
12229SOL    HW138128   0.726   2.239   7.503 -0.9303 -0.2056  0.6022
12229SOL    HW238129   0.585   2.283   7.473 -0.5235  0.5957 -0.1695
12230SOL     OW38130   2.359   7.341   9.265 -0.4930 -0.1666  0.0018
12230SOL    HW138131   2.321   7.304   9.344 -2.6061 -0.0929 -0.9363
12230SOL    HW238132   2.384   7.430   9.291 -0.6039 -0.3371  0.7338
12231SOL     OW38133   4.384   1.246  10.766 -0.4099 -0.3573 -0.3631
12231SOL    HW138134   4.431   1.169  10.733 -0.6574  0.1204 -1.9031
12231SOL    HW238135   4.332   1.276  10.692 -1.8210  0.1750  0.7848
12232SOL     OW38136   3.518   4.937   5.104 -0.1874 -0.0728 -0.1747
12232SOL    HW138137   3.460   4.938   5.027  1.7652  1.3080 -1.7270
12232SOL    HW238138   3.561   4.852   5.099  0.5827  0.3456 -1.1947
12233SOL     OW38139   7.553   7.890  12.020 -0.0611 -0.4167 -0.0532
12233SOL    HW138140   7.537   7.855  11.933 -0.3134 -2.5684  0.7833
12233SOL    HW238141   7.649   7.892  12.028 -0.0396 -1.4060  0.0429
12234SOL     OW38142   1.527   1.243   9.794 -0.3022 -0.6206  0.4028
12234SOL    HW138143   1.451   1.187   9.812 -0.0111 -0.9734  0.5494
12234SOL    HW238144   1.524   1.258   9.699 -1.5500  0.8205  0.6454
12235SOL     OW38145   5.404   4.789   5.452 -0.0242  0.2400  0.1392
12235SOL    HW138146   5.496   4.812   5.442 -0.5184  1.8139 -1.3816
12235SOL    HW238147   5.373   4.776   5.363 -1.6440  1.3962  0.4900
12236SOL     OW38148   6.919   7.504  10.168 -0.0093  0.1764 -0.3197
12236SOL    HW138149   6.865   7.527  10.243  2.0194 -0.8764  1.5808
12236SOL    HW238150   6.861   7.451  10.112 -1.2160 -0.1050  1.1280
12237SOL     OW38151   5.001   3.709   5.128 -0.4503  0.0304  0.0281
12237SOL    HW138152   4.968   3.763   5.057 -0.0308  0.0983 -0.1148
12237SOL    HW238153   5.061   3.647   5.087 -1.0358 -0.6506  0.1670
12238SOL     OW38154   6.281   5.061   4.542  0.2543 -0.4769 -0.0678
12238SOL    HW138155   6.342   5.044   4.471 -0.3925 -1.2110 -0.4587
12238SOL    HW238156   6.226   5.133   4.511  0.4864 -0.2608  0.0184
12239SOL     OW38157   6.323   4.597  10.734 -0.0688 -0.3010  0.0349
12239SOL    HW138158   6.417   4.588  10.750  0.5266  2.6556 -1.0846
12239SOL    HW238159   6.285   4.607  10.821  0.8235 -0.4058  0.4498
12240SOL     OW38160   7.402   0.096  11.449 -0.0331  0.0362  0.5316
12240SOL    HW138161   7.493   0.115  11.429 -0.1785 -1.0613 -1.3874
12240SOL    HW238162   7.359   0.092  11.363 -1.5578 -1.0008  1.3015
12241SOL     OW38163   5.057   5.656   0.823 -0.1227  0.2311  0.6610
12241SOL    HW138164   5.036   5.568   0.794 -2.0967  0.5671  0.9362
12241SOL    HW238165   5.133   5.646   0.880  0.9886 -0.9971 -0.9568
12242SOL     OW38166   6.725   5.481  12.103 -0.2109 -0.9169  0.8547
12242SOL    HW138167   6.703   5.389  12.115  0.9817 -1.3357  0.0736
12242SOL    HW238168   6.644   5.528  12.121 -1.1683 -2.2101  0.1094
12243SOL     OW38169   0.790   4.930   5.270 -0.0316  0.3870  0.2959
12243SOL    HW138170   0.880   4.961   5.260 -0.3793  1.0063 -1.2009
12243SOL    HW238171   0.796   4.835   5.264  0.6861  0.3125  1.8012
12244SOL     OW38172   6.913   1.856   2.130 -0.4159  0.0463 -0.6543
12244SOL    HW138173   6.817   1.858   2.128 -0.4060  1.2696 -0.6549
12244SOL    HW238174   6.939   1.945   2.105  0.6569  0.4044  1.4790
12245SOL     OW38175   5.239   1.157   8.826  0.0149 -0.0852 -0.6070
12245SOL    HW138176   5.185   1.079   8.814 -0.6614  0.3789 -0.6235
12245SOL    HW238177   5.189   1.227   8.784  1.1886  0.1393 -1.6993
12246SOL     OW38178   3.440   0.315  11.195  0.6198 -0.1068  0.0199
12246SOL    HW138179   3.525   0.303  11.238  0.4011  0.9977  0.8203
12246SOL    HW238180   3.421   0.230  11.156  2.1944 -0.3113 -0.3740
12247SOL     OW38181   7.865   5.264  11.743 -0.5142 -0.2798  0.1408
12247SOL    HW138182   7.943   5.212  11.724 -1.3075 -1.4463 -0.0705
12247SOL    HW238183   7.897   5.354  11.752  0.8996 -0.7856  0.4653
12248SOL     OW38184   2.672   7.072   2.056 -0.6329 -0.1952  0.0880
12248SOL    HW138185   2.652   7.165   2.044 -2.7135 -0.5902  0.0900
12248SOL    HW238186   2.720   7.048   1.978  0.0924  0.9216  0.1703
12249SOL     OW38187   7.550   0.752   8.178  0.4293  0.0769  0.0183
12249SOL    HW138188   7.527   0.730   8.088  0.1032 -0.8505  0.3171
12249SOL    HW238189   7.631   0.804   8.171  0.9722 -0.8606 -0.7435
12250SOL     OW38190   1.508   3.553  11.867  0.0777 -0.0337 -0.0374
12250SOL    HW138191   1.489   3.515  11.952 -0.1978  1.6419  0.7018
12250SOL    HW238192   1.542   3.640  11.887  1.2138 -0.0694 -1.6138
12251SOL     OW38193   4.446   7.562   7.525 -0.2859  0.3564 -0.1973
12251SOL    HW138194   4.382   7.593   7.461  0.4076  0.4357 -0.8656
12251SOL    HW238195   4.482   7.641   7.564  2.6677  0.6071 -3.0593
12252SOL     OW38196   1.912   7.239   3.540  0.3806  0.3551 -0.0717
12252SOL    HW138197   1.995   7.193   3.529  1.5232  2.5476 -1.4926
12252SOL    HW238198   1.914   7.271   3.630  1.7116  1.4474 -0.4581
12253SOL     OW38199   0.958   2.353   0.977  0.1334  0.0915  0.1190
12253SOL    HW138200   0.907   2.422   1.019 -0.9976 -0.1199 -0.8577
12253SOL    HW238201   1.042   2.394   0.955 -0.5077  1.1418 -0.4175
12254SOL     OW38202   0.748   0.441   5.005 -0.1032  0.4764 -0.2664
12254SOL    HW138203   0.784   0.529   4.995 -1.5521  1.2581  1.0726
12254SOL    HW238204   0.790   0.390   4.935  1.3973  2.0006 -0.5457
12255SOL     OW38205   1.835   4.383   1.602  0.3387 -0.0731 -0.1078
12255SOL    HW138206   1.898   4.451   1.624  0.3342 -0.5468  1.5484
12255SOL    HW238207   1.822   4.390   1.508  0.4784  2.0872 -0.0035
12256SOL     OW38208   4.436   6.850  10.701 -0.3378  0.6266 -0.3365
12256SOL    HW138209   4.518   6.896  10.683  0.6236 -0.6882  0.4394
12256SOL    HW238210   4.398   6.897  10.775  0.2691  0.6279 -0.0165
12257SOL     OW38211   5.613   3.640   0.817 -0.4848  0.3979 -0.1754
12257SOL    HW138212   5.636   3.730   0.839 -0.8015  0.5149 -0.3041
12257SOL    HW238213   5.532   3.623   0.865 -0.0380 -0.0703  0.4236
12258SOL     OW38214   2.284   0.400  11.965  0.0105  0.4309 -0.8675
12258SOL    HW138215   2.294   0.407  11.870  0.6789 -0.3175 -0.8635
12258SOL    HW238216   2.192   0.380  11.978 -0.1633  0.9031 -1.3375
12259SOL     OW38217   7.114   0.369   7.343 -0.3057 -0.0790 -0.2262
12259SOL    HW138218   7.114   0.281   7.381 -0.1679 -0.4683 -1.1074
12259SOL    HW238219   7.023   0.396   7.345 -0.2231  0.1710  0.9582
12260SOL     OW38220   3.407   1.385  12.280 -0.4697  0.5473 -0.1214
12260SOL    HW138221   3.471   1.375  12.209  0.3623 -1.2826  0.8153
12260SOL    HW238222   3.426   1.471  12.318  0.8182  0.4390 -0.4680
12261SOL     OW38223   1.375   6.583   6.504 -0.3061  0.5256 -0.6393
12261SOL    HW138224   1.301   6.522   6.510 -1.0603  1.3379 -1.3233
12261SOL    HW238225   1.434   6.543   6.440 -0.5246  0.2482 -0.6713
12262SOL     OW38226   5.304   0.181   0.499  0.4961  0.1983 -0.5176
12262SOL    HW138227   5.392   0.158   0.469  0.4137 -2.4364  0.9541
12262SOL    HW238228   5.265   0.230   0.426  2.3178 -0.7384 -2.1904
12263SOL     OW38229   4.465   5.960   7.816  0.2546  0.2069  0.1564
12263SOL    HW138230   4.414   5.916   7.748 -3.0764  0.8623  1.9940
12263SOL    HW238231   4.482   5.892   7.881  0.2346  0.3518  0.3146
12264SOL     OW38232   6.077   1.130   4.632 -1.0482  0.0946 -0.6448
12264SOL    HW138233   6.105   1.041   4.609 -0.2342 -0.0766  0.8672
12264SOL    HW238234   6.143   1.187   4.593 -1.0144 -0.0226 -0.7623
12265SOL     OW38235   2.627   0.445  10.821 -0.0963 -0.4565  0.0802
12265SOL    HW138236   2.553   0.430  10.762 -1.6172 -0.6906  1.9153
12265SOL    HW238237   2.620   0.537  10.846  0.9510 -0.1754 -0.6192
12266SOL     OW38238   6.298   0.039   0.074 -0.0042  0.3998 -0.0149
12266SOL    HW138239   6.315   0.084  -0.009  0.9633  0.8268  0.3985
12266SOL    HW238240   6.223  -0.018   0.056 -0.0163  0.7377 -1.0856
12267SOL     OW38241   4.612   6.741  12.348 -0.2852 -0.2984  0.2246
12267SOL    HW138242   4.578   6.820  12.391 -0.1429  1.0659 -2.0079
12267SOL    HW238243   4.706   6.741  12.368 -0.1211  0.6245 -0.4645
12268SOL     OW38244   7.348   1.726   1.458  0.3166 -0.0015 -0.0072
12268SOL    HW138245   7.306   1.752   1.539  0.8557  0.8770 -0.0079
12268SOL    HW238246   7.332   1.798   1.397  0.6497 -0.2681 -0.4248
12269SOL     OW38247   0.198   4.892   0.530 -0.2965  0.0786  0.0860
12269SOL    HW138248   0.160   4.806   0.515 -0.3870  0.1292  0.0274
12269SOL    HW238249   0.273   4.875   0.587 -0.9737  0.0982  0.9921
12270SOL     OW38250   2.319   7.593  10.342  0.2965 -0.1272 -0.5859
12270SOL    HW138251   2.251   7.573  10.407 -0.8756 -0.1558 -1.7777
12270SOL    HW238252   2.332   7.511  10.295  0.3456  0.1570 -1.0788
12271SOL     OW38253   0.756   2.409   2.446 -0.2817  0.2202 -0.3248
12271SOL    HW138254   0.709   2.414   2.529 -0.7252 -0.5108 -0.5236
12271SOL    HW238255   0.749   2.318   2.420 -0.0736  0.4252 -1.1215
12272SOL     OW38256   4.935   2.785   8.313  0.6061 -0.3499 -0.1488
12272SOL    HW138257   4.892   2.827   8.387  1.2770  1.3366 -0.6615
12272SOL    HW238258   4.921   2.691   8.327 -1.1581  0.0247  0.9259
12273SOL     OW38259   3.471   6.506   4.129  0.4015 -0.3709  0.1743
12273SOL    HW138260   3.430   6.585   4.165  2.2890  0.6675  0.1578
12273SOL    HW238261   3.538   6.483   4.194  1.3619 -0.6418 -0.8954
12274SOL     OW38262   3.116   3.371   2.631 -0.0680  0.3748 -0.2157
12274SOL    HW138263   3.163   3.332   2.706 -1.9399 -4.2030 -1.0489
12274SOL    HW238264   3.043   3.418   2.671 -0.1757 -0.6900  0.9168
12275SOL     OW38265   5.427   3.919   0.733  0.2723 -0.1084  0.3752
12275SOL    HW138266   5.484   3.948   0.662 -0.9352 -1.4222 -1.1978
12275SOL    HW238267   5.487   3.886   0.801  1.4632 -3.3376 -2.0178
12276SOL     OW38268   7.817   0.981   1.162  0.1918 -0.2382  0.4405
12276SOL    HW138269   7.849   0.999   1.074 -0.6555 -0.6595  0.0370
12276SOL    HW238270   7.824   1.065   1.208 -0.9843  0.4380 -0.5531
12277SOL     OW38271   3.699   5.777   6.707 -0.0923  0.1287  0.0448
12277SOL    HW138272   3.723   5.844   6.771  0.5745 -0.4596  0.4253
12277SOL    HW238273   3.734   5.695   6.744  1.2655 -0.0714 -1.5497
12278SOL     OW38274   7.866   4.029   0.280  0.1452 -0.5414  0.2746
12278SOL    HW138275   7.777   4.033   0.316 -1.3946 -0.9473 -3.0968
12278SOL    HW238276   7.904   3.950   0.316 -0.0162  0.6437  3.3327
12279SOL     OW38277   4.456   0.583  11.402 -0.0913 -0.2159  0.2324
12279SOL    HW138278   4.519   0.560  11.334 -0.7440  0.6329 -0.6926
12279SOL    HW238279   4.385   0.519  11.392 -1.1105  1.0427 -1.2319
12280SOL     OW38280   3.940   2.359  12.343  0.0908 -0.1630 -0.0180
12280SOL    HW138281   3.879   2.422  12.381 -0.9187 -0.4799 -1.0728
12280SOL    HW238282   4.025   2.403  12.348 -0.3303  0.5980  0.7680
12281SOL     OW38283   3.447   1.943   7.624 -0.3542  0.6460  0.4605
12281SOL    HW138284   3.463   1.949   7.530  0.9144  1.5277  0.7132
12281SOL    HW238285   3.516   1.886   7.657 -1.2256 -0.2512  0.7658
12282SOL     OW38286   4.165   6.338   3.086 -0.2588 -0.1108  0.2898
12282SOL    HW138287   4.227   6.388   3.032 -1.4418  0.3697 -0.6512
12282SOL    HW238288   4.090   6.322   3.029 -1.1156 -0.4843  1.4815
12283SOL     OW38289   5.150   6.994   4.298 -0.7894  0.1538 -0.3388
12283SOL    HW138290   5.129   6.900   4.294 -0.0850 -0.0357  0.1556
12283SOL    HW238291   5.143   7.016   4.391 -0.6121  0.5072 -0.4066
12284SOL     OW38292   3.706   6.017   0.988  0.2163  0.5004 -0.1023
12284SOL    HW138293   3.623   6.001   0.942 -0.6097  1.7993  0.8643
12284SOL    HW238294   3.754   6.077   0.932  0.4272 -0.1020 -0.5735
12285SOL     OW38295   2.330   2.813  10.431  0.3527 -0.3178 -0.4037
12285SOL    HW138296   2.374   2.844  10.510  0.8844 -1.8449 -0.0809
12285SOL    HW238297   2.363   2.725  10.418 -1.2222 -0.8174 -1.2260
12286SOL     OW38298   4.497   4.442   1.255 -0.2424  0.4682  0.2689
12286SOL    HW138299   4.421   4.396   1.289  0.3692  0.3319  1.4931
12286SOL    HW238300   4.537   4.381   1.192  0.3468 -0.5506  1.5896
12287SOL     OW38301   7.736   2.635   2.748  0.0971 -0.4490  0.2465
12287SOL    HW138302   7.711   2.727   2.737  1.4826 -0.2838 -2.5971
12287SOL    HW238303   7.787   2.633   2.828 -1.9630  0.7201  1.6970
12288SOL     OW38304   2.259   0.166   8.503 -0.4781 -0.1668 -0.0703
12288SOL    HW138305   2.251   0.184   8.409  0.3701 -0.1308 -0.1482
12288SOL    HW238306   2.298   0.078   8.507  2.3010  0.9793  0.1672
12289SOL     OW38307   1.909   7.784   5.948 -0.0548 -0.1946 -0.5211
12289SOL    HW138308   1.928   7.716   6.013  0.3082 -0.3274 -0.7646
12289SOL    HW238309   1.992   7.830   5.935 -0.5156  0.9305  0.3467
12290SOL     OW38310   1.546   0.289  11.475 -0.2922 -0.1622  0.3523
12290SOL    HW138311   1.508   0.372  11.502 -0.8039 -0.1279 -0.4242
12290SOL    HW238312   1.481   0.223  11.500 -1.0580 -0.0732 -1.2602
12291SOL     OW38313   0.982   7.647   5.572  0.3704 -0.5974  0.0909
12291SOL    HW138314   1.051   7.624   5.633 -0.8191  0.0890  1.7910
12291SOL    HW238315   0.952   7.564   5.536 -0.1098 -1.2395  1.8687
12292SOL     OW38316   7.796   2.567   6.049 -0.0008  0.4697 -0.9000
12292SOL    HW138317   7.811   2.489   6.103  0.7258  1.0574 -0.2233
12292SOL    HW238318   7.724   2.543   5.992 -1.7613  0.2738  1.2729
12293SOL     OW38319   4.980   7.416   6.339  0.5044  0.2998  0.4095
12293SOL    HW138320   5.034   7.488   6.305  1.5202  0.3209  1.9851
12293SOL    HW238321   4.928   7.457   6.409 -0.1203 -0.1569  0.2195
12294SOL     OW38322   7.587   7.190   1.494 -0.3573 -0.2637 -0.7929
12294SOL    HW138323   7.581   7.278   1.457 -0.5395 -0.2208 -0.6623
12294SOL    HW238324   7.532   7.136   1.437  1.2118 -0.6777 -2.0001
12295SOL     OW38325   5.677   6.296   0.639  0.5731 -0.7620 -0.8178
12295SOL    HW138326   5.761   6.269   0.602  2.2831  0.4822  1.8393
12295SOL    HW238327   5.688   6.286   0.734 -1.9528  0.3810 -0.3103
12296SOL     OW38328   0.478   0.260   3.313  0.1435  0.0304  0.2015
12296SOL    HW138329   0.492   0.354   3.299 -1.3740  0.0740 -1.2721
12296SOL    HW238330   0.499   0.247   3.406 -0.7356  2.0611  0.7555
12297SOL     OW38331   3.769   4.761   9.527 -0.1368 -0.0782 -0.4498
12297SOL    HW138332   3.831   4.829   9.552 -0.3538  0.0729 -0.3207
12297SOL    HW238333   3.720   4.800   9.454 -0.6638  0.1333  0.0095
12298SOL     OW38334   2.281   2.755   7.095  0.7383  0.0982  0.3380
12298SOL    HW138335   2.323   2.721   7.016  2.2528  0.7248  0.8251
12298SOL    HW238336   2.353   2.767   7.157 -0.0827  1.7717  1.0338
12299SOL     OW38337   1.579   5.815   4.259 -0.5391 -0.9414  0.3248
12299SOL    HW138338   1.623   5.825   4.175 -1.1436 -2.7039 -0.2378
12299SOL    HW238339   1.488   5.795   4.237 -1.1853  0.5788  1.4471
12300SOL     OW38340   3.621   7.124   1.637 -0.3465 -0.0109 -0.0415
12300SOL    HW138341   3.614   7.067   1.713  1.8889 -0.6813 -0.2691
12300SOL    HW238342   3.627   7.064   1.562  1.0391  0.5138 -0.3779
12301SOL     OW38343   2.186   5.985   1.900 -0.2848  0.3403  0.4399
12301SOL    HW138344   2.235   6.005   1.979 -1.2352  0.7009  0.9655
12301SOL    HW238345   2.251   5.982   1.830  0.6308 -0.5024  1.3119
12302SOL     OW38346   7.581   1.560   0.929 -0.2120  0.0601 -0.2382
12302SOL    HW138347   7.547   1.471   0.936  1.6421 -0.6290  0.5748
12302SOL    HW238348   7.524   1.612   0.986 -1.6851 -0.4560 -1.1914
12303SOL     OW38349   7.010   7.079   7.461  0.4043  0.2851 -0.3266
12303SOL    HW138350   6.945   7.150   7.462 -0.8862 -0.8602  0.8320
12303SOL    HW238351   6.989   7.028   7.383  0.7967  0.6426 -0.6825
12304SOL     OW38352   0.636   7.220   4.192  0.1237 -0.2684  0.2796
12304SOL    HW138353   0.662   7.139   4.148  1.9329  0.0678  0.6494
12304SOL    HW238354   0.607   7.278   4.121  0.5462 -0.6155 -0.1785
12305SOL     OW38355   7.832   2.851   1.192  0.1910  0.2832 -0.3461
12305SOL    HW138356   7.824   2.899   1.275  0.8570  0.6876 -0.5023
12305SOL    HW238357   7.915   2.882   1.155  0.1815 -0.3234 -0.8902
12306SOL     OW38358   4.079   2.930   9.404 -0.4327 -0.1458 -0.2681
12306SOL    HW138359   4.164   2.905   9.440 -0.0320  0.3298 -0.8668
12306SOL    HW238360   4.016   2.879   9.454  0.1572  0.0227  0.6678
12307SOL     OW38361   7.828   6.769   8.001  0.6211 -0.1832  0.0444
12307SOL    HW138362   7.915   6.750   8.034  1.1820 -1.2126 -1.9123
12307SOL    HW238363   7.842   6.828   7.927 -0.4945  1.0100  0.7306
12308SOL     OW38364   1.235   1.832   2.772  0.0564 -0.1617 -0.1849
12308SOL    HW138365   1.154   1.802   2.814  1.0693 -1.8492  0.6669
12308SOL    HW238366   1.248   1.920   2.808 -0.2073 -0.7619  1.4797
12309SOL     OW38367   4.564   1.861  12.267 -0.1717 -0.1479 -0.6403
12309SOL    HW138368   4.597   1.861  12.357  2.0713  2.0358 -1.3673
12309SOL    HW238369   4.585   1.774  12.234  2.8186  0.3177 -0.2545
12310SOL     OW38370   0.737   0.248   8.733 -0.1019  0.5293 -0.3677
12310SOL    HW138371   0.643   0.230   8.741  0.0411 -0.0748 -0.0298
12310SOL    HW238372   0.779   0.163   8.741  0.5243  0.8819  0.2234
12311SOL     OW38373   6.600   7.247   9.633 -0.4996 -0.5072  0.5421
12311SOL    HW138374   6.659   7.177   9.663 -0.1488  0.1584  1.4574
12311SOL    HW238375   6.514   7.205   9.627 -0.1066 -1.2602  0.0935
12312SOL     OW38376   6.627   7.878  10.116 -0.8820  0.2677 -0.1664
12312SOL    HW138377   6.588   7.944  10.173 -1.6994 -0.5800  0.3058
12312SOL    HW238378   6.630   7.799  10.170 -1.8557 -0.6128 -1.3341
12313SOL     OW38379   0.136   0.102   9.079  0.0739  0.2017 -0.2578
12313SOL    HW138380   0.106   0.136   9.163 -0.7356 -0.5275 -0.2333
12313SOL    HW238381   0.227   0.130   9.073 -0.4014  1.9204 -0.0190
12314SOL     OW38382   7.595   0.609   1.369  0.1225  0.2688 -0.3087
12314SOL    HW138383   7.647   0.686   1.346  0.9148 -0.2956 -0.4847
12314SOL    HW238384   7.551   0.585   1.288  0.0782  0.3917 -0.3206
12315SOL     OW38385   3.271   7.766  10.470 -0.1749 -0.8745 -0.4392
12315SOL    HW138386   3.319   7.715  10.404  1.2814 -0.3380  0.1637
12315SOL    HW238387   3.282   7.857  10.443 -1.4265 -0.7617 -0.6368
12316SOL     OW38388   6.674   0.827   8.647  0.3277  0.2199 -0.1861
12316SOL    HW138389   6.693   0.918   8.671 -1.0225  0.4258  0.1842
12316SOL    HW238390   6.701   0.777   8.724 -0.7172  0.5161  0.3836
12317SOL     OW38391   0.764   2.344   6.109  0.1546  0.4241  0.2227
12317SOL    HW138392   0.830   2.275   6.107 -2.0793 -1.8587  0.3798
12317SOL    HW238393   0.743   2.353   6.202  1.1955  2.2076  0.3359
12318SOL     OW38394   0.767   5.705   9.424  0.3608  0.1612 -0.0885
12318SOL    HW138395   0.849   5.720   9.378  0.2275  0.2783 -0.2856
12318SOL    HW238396   0.772   5.762   9.501  0.7233 -0.2752  0.2170
12319SOL     OW38397   0.765   5.666   6.007 -0.0708  0.1703  0.1612
12319SOL    HW138398   0.678   5.628   6.021  0.1679  0.3520  2.4368
12319SOL    HW238399   0.748   5.753   5.972 -0.7885  0.1115  0.3521
12320SOL     OW38400   7.493   6.061  11.734  0.5807 -0.2523 -0.3092
12320SOL    HW138401   7.451   5.979  11.762  1.5719 -0.3940  0.8380
12320SOL    HW238402   7.549   6.035  11.661 -0.9511 -0.1344 -1.5798
12321SOL     OW38403   1.436   5.083   3.378  0.3666  0.0806 -0.0864
12321SOL    HW138404   1.402   5.171   3.395  0.9867  0.3506 -0.2324
12321SOL    HW238405   1.524   5.083   3.416  1.0294  0.0729 -1.5469
12322SOL     OW38406   7.374   1.623   4.097 -0.1757 -0.0615  0.0270
12322SOL    HW138407   7.293   1.627   4.148  1.0079 -2.0929  2.2955
12322SOL    HW238408   7.422   1.701   4.121 -0.9952  0.6465 -0.5663
12323SOL     OW38409   4.497   2.096   4.306  0.4411 -0.1203  0.5788
12323SOL    HW138410   4.469   2.176   4.351  0.6246 -0.1997  0.8396
12323SOL    HW238411   4.560   2.127   4.240  0.1878 -0.0056  0.3891
12324SOL     OW38412   7.728   4.580   9.789 -0.1852 -0.2167 -0.0753
12324SOL    HW138413   7.768   4.493   9.790  0.1410 -0.0728 -0.3539
12324SOL    HW238414   7.666   4.578   9.716  0.6169  0.1288 -0.7831
12325SOL     OW38415   2.958   4.529   4.311 -0.3504  0.4545  0.0299
12325SOL    HW138416   2.965   4.516   4.406 -0.5168 -0.5659 -0.0836
12325SOL    HW238417   3.040   4.573   4.287 -0.1011  0.3080  0.5801
12326SOL     OW38418   6.594   5.608   0.813  0.2675  0.3448 -0.0197
12326SOL    HW138419   6.556   5.532   0.769 -0.8949  0.5841  0.5282
12326SOL    HW238420   6.519   5.664   0.833  0.9027  0.7857  1.2291
12327SOL     OW38421   1.121   0.662   5.059  0.2853 -0.8184 -0.0542
12327SOL    HW138422   1.169   0.597   5.007  1.9825 -0.5975  1.1525
12327SOL    HW238423   1.183   0.689   5.127 -0.8026  1.1546  0.2329
12328SOL     OW38424   2.643   5.018  10.107 -0.6876  0.3345  0.0635
12328SOL    HW138425   2.647   4.982  10.195 -3.5886  2.9690  1.4589
12328SOL    HW238426   2.560   4.986  10.071 -0.4257  0.7874 -0.9877
12329SOL     OW38427   6.503   4.679  11.079  0.2445  0.0234 -0.3001
12329SOL    HW138428   6.564   4.655  11.008 -2.2081 -0.3958 -2.4086
12329SOL    HW238429   6.417   4.680  11.037 -1.3613 -0.2623  2.7274
12330SOL     OW38430   3.001   0.947   4.347  0.1657  0.4958 -0.4142
12330SOL    HW138431   3.071   0.925   4.409 -0.8860  1.1884  1.0696
12330SOL    HW238432   2.973   1.035   4.373  0.5840  1.3900 -2.7499
12331SOL     OW38433   1.242   4.950   5.980  0.5607 -0.6234 -0.1603
12331SOL    HW138434   1.211   4.879   6.036  0.1920 -0.1947  0.1898
12331SOL    HW238435   1.182   5.023   5.999  1.6712  0.1764  0.4072
12332SOL     OW38436   4.726   2.547   5.105 -0.0660 -0.0216  0.3532
12332SOL    HW138437   4.683   2.466   5.080 -0.5645  0.3757 -0.1060
12332SOL    HW238438   4.763   2.530   5.191 -0.2893 -0.6863  0.3170
12333SOL     OW38439   1.317   0.344   9.701 -0.0363  0.0799 -0.6029
12333SOL    HW138440   1.353   0.332   9.613 -0.2509 -0.7697 -0.5808
12333SOL    HW238441   1.330   0.259   9.744 -0.5483  0.2832 -0.0412
12334SOL     OW38442   4.505   3.756  10.011 -0.0665 -0.2290 -0.0765
12334SOL    HW138443   4.414   3.757  10.041  0.1943 -1.5890  0.8393
12334SOL    HW238444   4.512   3.676   9.960  0.8976 -0.7532  0.8458
12335SOL     OW38445   6.326   3.156   8.652  0.1144  0.9013  0.3158
12335SOL    HW138446   6.305   3.229   8.711 -1.9164  1.4599 -1.0173
12335SOL    HW238447   6.300   3.187   8.565  0.0903 -1.0666 -0.4171
12336SOL     OW38448   3.944   1.347   9.068  0.0374 -0.4997 -0.5429
12336SOL    HW138449   3.945   1.276   9.132 -0.9982  0.3300  0.4225
12336SOL    HW238450   3.863   1.394   9.085  0.4093  0.5620 -1.5695
12337SOL     OW38451   2.054   1.513  11.809 -0.0470 -0.1685  0.1494
12337SOL    HW138452   2.025   1.602  11.829  0.3813  0.0691 -0.2780
12337SOL    HW238453   2.144   1.509  11.841 -0.1880 -0.5671  0.5031
12338SOL     OW38454   2.952   7.588   8.046  0.1887  0.4785 -0.1417
12338SOL    HW138455   3.032   7.537   8.059  0.1711  0.4339 -0.2073
12338SOL    HW238456   2.884   7.522   8.030  0.0568  0.4982  0.3476
12339SOL     OW38457   7.594   6.227   2.322 -0.5241 -0.4588 -0.0041
12339SOL    HW138458   7.687   6.208   2.335 -0.0670  1.3676 -0.3694
12339SOL    HW238459   7.559   6.147   2.281  0.6041 -1.6090  1.1711
12340SOL     OW38460   7.843   1.935  11.552 -0.0115  0.1697  0.2530
12340SOL    HW138461   7.904   1.862  11.561  1.4371  1.2225 -0.5622
12340SOL    HW238462   7.757   1.896  11.563  0.7164 -1.6709 -0.2706
12341SOL     OW38463   4.678   3.057  10.938 -0.3094  0.2235  0.0955
12341SOL    HW138464   4.771   3.057  10.915 -0.6394 -2.7435 -1.8007
12341SOL    HW238465   4.637   3.111  10.870 -0.0867  0.5924  0.2552
12342SOL     OW38466   5.295   1.322   0.047  0.1057 -0.5315 -0.2136
12342SOL    HW138467   5.221   1.268   0.074 -1.2444  1.4313  0.2945
12342SOL    HW238468   5.287   1.330  -0.048 -0.2940 -0.4186 -0.1719
12343SOL     OW38469   0.379   1.421  11.316  0.0936  0.4928  0.1555
12343SOL    HW138470   0.363   1.392  11.226  0.3305  3.0880 -0.8186
12343SOL    HW238471   0.293   1.419  11.358 -0.0191 -0.7312 -0.0874
12344SOL     OW38472   4.247   4.098  10.180  0.1603  0.2288  0.1568
12344SOL    HW138473   4.236   4.147  10.098 -3.6931 -1.6371 -0.6506
12344SOL    HW238474   4.273   4.165  10.244  0.6220  2.2322 -1.9794
12345SOL     OW38475   4.540   1.539   7.890 -0.1900 -0.5218  0.7157
12345SOL    HW138476   4.487   1.563   7.814  1.1320 -1.6533 -0.6014
12345SOL    HW238477   4.590   1.462   7.863  1.7802  0.1920  2.0586
12346SOL     OW38478   0.272   3.069  12.209  0.7371 -0.4745  0.5718
12346SOL    HW138479   0.335   3.121  12.260  1.2758 -0.9353  0.3868
12346SOL    HW238480   0.221   3.022  12.276  0.6215 -0.1404  0.7214
12347SOL     OW38481   7.719   0.683   5.349 -0.4353  0.1961  0.2083
12347SOL    HW138482   7.654   0.751   5.370  1.7475  2.3642  0.4425
12347SOL    HW238483   7.773   0.677   5.428 -0.7000 -2.0248  0.2657
12348SOL     OW38484   4.645   4.019   5.687  0.0667  0.1435 -0.1366
12348SOL    HW138485   4.724   4.050   5.731  0.8318 -0.8104 -0.7912
12348SOL    HW238486   4.650   3.923   5.694 -0.9184  0.0609 -0.3785
12349SOL     OW38487   6.182   2.405   1.823 -0.0345  0.0301 -0.3332
12349SOL    HW138488   6.180   2.483   1.769 -1.8236 -0.4177 -1.0012
12349SOL    HW238489   6.157   2.334   1.764  0.2791 -0.8412  0.5452
12350SOL     OW38490   2.722   1.820  11.219  0.5723  0.6895 -0.0541
12350SOL    HW138491   2.799   1.871  11.194  0.8940  0.0251 -0.4354
12350SOL    HW238492   2.651   1.853  11.164  0.5500  1.3605  0.3570
12351SOL     OW38493   6.052   1.359   9.703 -0.4102 -0.3129 -0.2388
12351SOL    HW138494   5.989   1.289   9.687 -0.3761 -1.1283  2.6898
12351SOL    HW238495   6.002   1.428   9.747 -0.2711  1.3037 -2.3982
12352SOL     OW38496   2.517   1.651   7.828  0.2022 -0.3436  0.2878
12352SOL    HW138497   2.593   1.595   7.841  0.1290 -0.9520 -1.5657
12352SOL    HW238498   2.452   1.594   7.788  0.1945  1.0440 -1.8417
12353SOL     OW38499   0.560   0.105   4.575 -0.2186 -0.5847 -0.3857
12353SOL    HW138500   0.603   0.036   4.526  0.8315  1.0342 -1.8640
12353SOL    HW238501   0.630   0.143   4.629 -0.9923 -1.2587  1.1446
12354SOL     OW38502   3.386   0.220   4.332 -0.2056  0.0788  0.5151
12354SOL    HW138503   3.468   0.233   4.285  0.5396 -1.0453  1.4475
12354SOL    HW238504   3.332   0.296   4.308  1.4223  1.3033  0.5926
12355SOL     OW38505   7.570   2.047   1.189 -0.0544 -0.7808 -0.0810
12355SOL    HW138506   7.619   1.973   1.153 -1.3098 -1.0188 -1.3834
12355SOL    HW238507   7.612   2.064   1.273 -0.2579 -3.5217  0.6668
12356SOL     OW38508   7.171   5.005   7.346 -0.9464 -0.1328  0.5675
12356SOL    HW138509   7.192   4.926   7.295  0.0897  0.1700  0.5167
12356SOL    HW238510   7.092   4.981   7.395 -0.0848 -1.5498  1.3090
12357SOL     OW38511   5.094   4.804  11.031  0.0386  0.3878 -0.2346
12357SOL    HW138512   5.168   4.790  11.090 -0.4860 -0.7053  0.2066
12357SOL    HW238513   5.100   4.733  10.967  0.5063  1.4676 -1.4217
12358SOL     OW38514   2.275   3.509   0.802  0.1494 -0.0938  0.0846
12358SOL    HW138515   2.270   3.605   0.801 -0.3958 -0.1276 -0.6660
12358SOL    HW238516   2.364   3.491   0.834  0.6281  0.6807 -0.7468
12359SOL     OW38517   6.718   7.236   7.926 -0.2805  0.3524 -0.6298
12359SOL    HW138518   6.737   7.145   7.948 -1.9786  0.2062  0.3755
12359SOL    HW238519   6.756   7.287   7.998  1.9533  0.6182 -1.9018
12360SOL     OW38520   6.643   5.906  10.451 -0.0431 -0.2101  0.0489
12360SOL    HW138521   6.698   5.980  10.423  1.9657 -1.8077 -0.4913
12360SOL    HW238522   6.587   5.942  10.519  0.6576  1.8868 -0.4031
12361SOL     OW38523   5.501   4.741   9.756 -0.2934  0.3020  0.1334
12361SOL    HW138524   5.502   4.829   9.719 -1.8990  0.2479 -0.1071
12361SOL    HW238525   5.498   4.683   9.680  0.7406  0.0274  0.2925
12362SOL     OW38526   6.237   3.638   3.700  0.1533 -0.6287  0.4138
12362SOL    HW138527   6.305   3.701   3.724 -0.1397  0.0429 -0.4311
12362SOL    HW238528   6.273   3.553   3.724  0.0201 -0.0670  2.8133
12363SOL     OW38529   5.144   1.627   8.817 -0.1551  0.1768  0.2710
12363SOL    HW138530   5.239   1.624   8.803 -0.3897 -0.7415 -1.4232
12363SOL    HW238531   5.120   1.718   8.799  0.3446  0.3047  0.2478
12364SOL     OW38532   1.064   4.871  11.434 -0.2108 -0.4524  0.2833
12364SOL    HW138533   1.023   4.843  11.515 -1.7032  0.0058 -0.2821
12364SOL    HW238534   1.090   4.789  11.391  0.6468 -0.6964  1.2119
12365SOL     OW38535   7.479   4.556   8.911  0.3875 -0.6802 -0.1000
12365SOL    HW138536   7.433   4.501   8.848  0.3023 -0.0189 -0.6294
12365SOL    HW238537   7.461   4.645   8.882  1.8746 -0.3987 -0.2353
12366SOL     OW38538   1.185   6.294   5.518 -0.0402  0.5132 -0.5129
12366SOL    HW138539   1.204   6.201   5.529  3.7826  1.4404  3.5282
12366SOL    HW238540   1.240   6.321   5.444  1.0401  0.0343  0.0997
12367SOL     OW38541   7.621   4.186   5.529  0.0136  0.5346  0.2241
12367SOL    HW138542   7.526   4.181   5.518  0.1709 -0.7535 -0.8694
12367SOL    HW238543   7.634   4.191   5.624 -1.0865 -1.6485  0.5510
12368SOL     OW38544   1.740   6.357   6.431 -0.3184  0.6338  0.2066
12368SOL    HW138545   1.713   6.412   6.358 -0.5427 -1.3822 -1.3111
12368SOL    HW238546   1.665   6.359   6.491 -0.8475  0.9433 -0.4465
12369SOL     OW38547   7.509   3.019   3.617 -0.0011  0.0861  0.2266
12369SOL    HW138548   7.456   3.099   3.618  0.0364  0.1038  0.8627
12369SOL    HW238549   7.599   3.051   3.620  0.1131  0.0973 -1.8875
12370SOL     OW38550   5.075   0.048   5.420 -0.2699  0.1928  0.2229
12370SOL    HW138551   5.053   0.057   5.327  0.0736 -1.1448 -0.0140
12370SOL    HW238552   5.060   0.134   5.457  0.3182  0.9591 -1.2341
12371SOL     OW38553   7.653   0.016   9.901  0.1268 -0.1948  0.7129
12371SOL    HW138554   7.614  -0.035   9.972  0.1541 -0.2613  0.6801
12371SOL    HW238555   7.693  -0.049   9.844 -1.5960 -0.2986 -0.4332
12372SOL     OW38556   1.178   5.704  10.916 -0.2788 -0.4403 -0.1368
12372SOL    HW138557   1.250   5.728  10.975  0.8853 -2.9542 -0.3805
12372SOL    HW238558   1.100   5.741  10.958  1.1094  2.8079 -0.1185
12373SOL     OW38559   3.179   6.035   6.107 -0.6839  0.8875 -0.0648
12373SOL    HW138560   3.247   5.970   6.127 -2.3036 -0.9528 -0.2377
12373SOL    HW238561   3.202   6.066   6.019  0.4277  0.9993  0.2435
12374SOL     OW38562   0.537   4.865   2.812 -0.0741 -0.1011  0.0098
12374SOL    HW138563   0.488   4.807   2.753 -0.9454  0.3988  0.2244
12374SOL    HW238564   0.594   4.916   2.754  0.3342 -0.8105 -0.2267
12375SOL     OW38565   4.019   5.094   2.241  0.4523 -0.3507 -0.1483
12375SOL    HW138566   3.988   5.030   2.177 -0.4857 -0.1960  0.1309
12375SOL    HW238567   3.996   5.178   2.203 -0.5236 -0.2711  0.5832
12376SOL     OW38568   0.554   5.176   0.290 -0.3481 -0.2898  0.3377
12376SOL    HW138569   0.503   5.170   0.371  0.3215  1.3298  0.9350
12376SOL    HW238570   0.613   5.101   0.293 -1.2053 -0.9673  0.7016
12377SOL     OW38571   6.883   4.255   4.633 -0.0477 -0.0186  0.0528
12377SOL    HW138572   6.808   4.314   4.629 -0.2252 -0.2027  0.6314
12377SOL    HW238573   6.911   4.257   4.725  0.3409 -0.3387 -0.0546
12378SOL     OW38574   0.065   4.623  11.202  0.1195 -0.2706  0.0459
12378SOL    HW138575   0.120   4.667  11.267  0.0600 -1.3431  0.8402
12378SOL    HW238576   0.113   4.631  11.120  1.1309 -0.5749  0.5965
12379SOL     OW38577   6.855   5.642  10.840 -0.4136  0.5837  0.4370
12379SOL    HW138578   6.889   5.663  10.753  0.1693 -0.2080  0.4584
12379SOL    HW238579   6.764   5.618  10.825  0.3915 -2.4296 -0.4656
12380SOL     OW38580   1.035   6.616   2.545  0.5000  0.6204 -0.0322
12380SOL    HW138581   1.098   6.605   2.616  0.5784 -1.3801 -0.3333
12380SOL    HW238582   1.001   6.527   2.529 -0.9323  1.3238 -1.2050
12381SOL     OW38583   7.492   7.791   5.118 -0.1991 -0.3075  0.0974
12381SOL    HW138584   7.585   7.806   5.102 -0.2229 -0.3894 -0.1336
12381SOL    HW238585   7.484   7.696   5.128 -0.2499 -0.2960  0.1645
12382SOL     OW38586   2.990   6.719   3.612  0.2995  0.7339  0.2426
12382SOL    HW138587   2.957   6.754   3.529  0.8439 -0.1106 -0.3479
12382SOL    HW238588   2.991   6.624   3.599  1.5948  0.6568  0.7486
12383SOL     OW38589   0.390   2.986   2.901  0.4723  0.5313 -0.1499
12383SOL    HW138590   0.317   2.991   2.962  0.1228  1.7012 -0.6377
12383SOL    HW238591   0.390   3.071   2.857  0.6836 -0.2995 -1.8118
12384SOL     OW38592   6.037   6.000   8.588  0.1571 -0.2386  0.4424
12384SOL    HW138593   5.981   5.950   8.647 -1.1080  0.7399  0.1085
12384SOL    HW238594   6.027   5.958   8.503 -1.7610  1.1404 -0.0837
12385SOL     OW38595   2.017   4.446   5.206  0.7741 -0.1691  0.0883
12385SOL    HW138596   2.088   4.460   5.143  0.1849 -0.9379 -0.7856
12385SOL    HW238597   1.975   4.531   5.214  0.1975 -0.2826 -1.4135
12386SOL     OW38598   4.827   3.029   0.915  0.0269  0.3925  0.5443
12386SOL    HW138599   4.915   3.017   0.950  0.2401  1.1948  0.2905
12386SOL    HW238600   4.808   3.122   0.928 -1.2143  0.0276  1.5965
12387SOL     OW38601   3.193   3.946   2.690 -0.1488 -0.1262 -0.2683
12387SOL    HW138602   3.200   4.040   2.705 -1.4026 -0.2457  1.2641
12387SOL    HW238603   3.283   3.917   2.672  0.3969  1.1856  0.2799
12388SOL     OW38604   3.207   7.307   0.726 -0.4119  0.3650  0.1457
12388SOL    HW138605   3.216   7.272   0.815  0.6466  1.5003  0.5139
12388SOL    HW238606   3.297   7.309   0.692 -0.7394  0.4860 -0.7277
12389SOL     OW38607   5.906   7.336   8.498  0.1764  0.0728  0.7188
12389SOL    HW138608   5.843   7.361   8.430  0.1722 -1.6826  0.0435
12389SOL    HW238609   5.942   7.253   8.468  2.0018  0.4890  1.6674
12390SOL     OW38610   0.003   6.161   4.862  0.2618 -0.2930  0.4683
12390SOL    HW138611   0.024   6.252   4.884  0.2642 -0.6191  1.8781
12390SOL    HW238612   0.048   6.146   4.779 -1.6670  1.7131 -1.0900
12391SOL     OW38613   2.475   7.630  12.307  0.2376  0.0826  0.6049
12391SOL    HW138614   2.445   7.590  12.388 -0.0646  0.4610  0.6853
12391SOL    HW238615   2.430   7.715  12.305 -3.3447 -1.6116 -2.1185
12392SOL     OW38616   3.005   2.212   8.543 -0.5101  0.2655 -0.3182
12392SOL    HW138617   2.977   2.302   8.559 -0.0705  0.3574 -0.0596
12392SOL    HW238618   2.923   2.162   8.535 -0.7464  0.5473  0.3203
12393SOL     OW38619   3.423   5.682   6.254 -0.1171 -0.5482  0.0165
12393SOL    HW138620   3.441   5.775   6.265 -0.4081 -0.6792  1.9607
12393SOL    HW238621   3.507   5.639   6.271 -0.4934 -0.7482  1.4306
12394SOL     OW38622   1.700   4.323   9.155  0.6204  0.0491 -0.2888
12394SOL    HW138623   1.679   4.327   9.248 -2.0273 -3.3708 -0.5574
12394SOL    HW238624   1.779   4.268   9.150 -0.7670 -2.0689 -0.0876
12395SOL     OW38625   4.397   0.545   0.068 -0.0280  0.1037  0.1845
12395SOL    HW138626   4.362   0.628   0.099 -1.0422 -0.0309 -0.5401
12395SOL    HW238627   4.491   0.552   0.081 -0.0015  1.7136 -0.6241
12396SOL     OW38628   0.981   3.769  11.989 -0.0478 -0.2586 -0.1523
12396SOL    HW138629   1.024   3.685  11.975 -1.0585 -0.9270  0.6464
12396SOL    HW238630   0.965   3.773  12.084  0.0023  0.8492 -0.1712
12397SOL     OW38631   3.894   2.465   3.000  0.0930  0.1297  0.4557
12397SOL    HW138632   3.919   2.403   2.931  0.9726  1.5135 -0.5261
12397SOL    HW238633   3.808   2.434   3.031 -0.2174 -0.6611 -1.1074
12398SOL     OW38634   4.328   7.001  11.597  0.1956  0.2470 -0.2578
12398SOL    HW138635   4.379   7.064  11.648  1.2457 -0.6634 -0.1444
12398SOL    HW238636   4.289   7.053  11.527  0.2221  1.1922  0.4127
12399SOL     OW38637   1.573   5.229   1.538 -0.6221  0.1385 -0.1371
12399SOL    HW138638   1.580   5.314   1.581  0.9345  0.8151 -1.5676
12399SOL    HW238639   1.590   5.248   1.445 -0.1525 -1.7415 -0.4840
12400SOL     OW38640   7.330   4.004   0.707  0.2124 -0.0252 -0.5723
12400SOL    HW138641   7.235   4.003   0.694  0.2610 -1.8400 -1.0449
12400SOL    HW238642   7.357   4.093   0.683 -1.4703  0.8191  0.5203
12401SOL     OW38643   2.203   0.432   3.945  0.2256  0.0567  0.3618
12401SOL    HW138644   2.164   0.500   3.891  0.5575 -0.9483 -1.2028
12401SOL    HW238645   2.139   0.360   3.943  0.7539 -0.4221  0.3508
12402SOL     OW38646   5.174   6.435   9.610  1.0239 -0.4503  0.4559
12402SOL    HW138647   5.147   6.470   9.525  1.3290 -1.2496  0.0244
12402SOL    HW238648   5.202   6.512   9.660 -0.1981  0.1684  0.2370
12403SOL     OW38649   7.731   0.142   4.839  0.2153  0.2406 -0.2648
12403SOL    HW138650   7.748   0.145   4.933  1.0564  2.2155 -0.4467
12403SOL    HW238651   7.814   0.115   4.801  0.0460  0.0456 -0.5004
12404SOL     OW38652   0.814   0.288   0.469 -0.3837 -0.2613  0.7977
12404SOL    HW138653   0.755   0.221   0.435  0.4800 -0.9837  0.6732
12404SOL    HW238654   0.900   0.263   0.436  0.1147  0.3258  1.6096
12405SOL     OW38655   5.464   2.129   1.183  0.3092 -1.1120  0.3876
12405SOL    HW138656   5.479   2.159   1.094 -0.2842 -0.7203  0.4175
12405SOL    HW238657   5.535   2.168   1.234 -0.6785  0.6277  0.5083
12406SOL     OW38658   6.129   7.797   9.326 -0.4850  0.1468 -0.2967
12406SOL    HW138659   6.138   7.724   9.266  0.3156 -1.6010  1.8061
12406SOL    HW238660   6.212   7.844   9.321 -0.2472 -0.2634 -0.2434
12407SOL     OW38661   0.329   0.139   3.731  0.3011  0.5540 -0.1231
12407SOL    HW138662   0.376   0.186   3.800  1.0724 -1.2283  0.6628
12407SOL    HW238663   0.391   0.072   3.703 -1.9707 -2.5786  1.6392
12408SOL     OW38664   6.914   3.149   3.897 -0.1358 -0.4105  0.2266
12408SOL    HW138665   6.957   3.077   3.851 -0.6418 -1.0143  0.6827
12408SOL    HW238666   6.840   3.173   3.842 -0.1088 -0.3988  0.1954
12409SOL     OW38667   6.123   0.919   5.997 -0.6755  0.0487 -0.1266
12409SOL    HW138668   6.099   0.959   6.080  0.5738  0.6044 -0.0175
12409SOL    HW238669   6.170   0.987   5.949 -0.9598 -0.4145 -1.0969
12410SOL     OW38670   5.784   7.144   4.994  0.6149 -0.0853 -0.0786
12410SOL    HW138671   5.845   7.197   4.944  0.4662 -0.6704 -0.9053
12410SOL    HW238672   5.768   7.194   5.074  1.7653  0.3121 -0.0823
12411SOL     OW38673   1.358   7.014   6.113  0.0533 -0.4936 -0.8032
12411SOL    HW138674   1.300   6.954   6.158 -0.3447 -1.2005 -2.1953
12411SOL    HW238675   1.442   6.968   6.108  0.8429  0.5838  1.3331
12412SOL     OW38676   5.015   1.848   1.446 -0.3076  0.0610 -0.4916
12412SOL    HW138677   5.104   1.884   1.446 -0.4322  0.3991  0.2230
12412SOL    HW238678   5.026   1.759   1.480 -0.0748 -0.3832 -1.6964
12413SOL     OW38679   3.624   2.387   2.763  0.1065 -0.1674  0.0327
12413SOL    HW138680   3.537   2.354   2.743  0.3621 -0.3033 -0.8625
12413SOL    HW238681   3.610   2.445   2.839 -1.0218  1.0634 -1.0675
12414SOL     OW38682   0.500   7.008   6.637 -0.4289  0.4348  0.4645
12414SOL    HW138683   0.440   7.018   6.711 -0.6703  2.4520  0.0457
12414SOL    HW238684   0.451   7.040   6.561  1.3081  2.7753  0.2159
12415SOL     OW38685   4.815   0.511  12.302 -0.2661  0.6057  0.1746
12415SOL    HW138686   4.760   0.447  12.257  2.1267 -2.5461  1.3567
12415SOL    HW238687   4.904   0.492  12.272  0.7107  2.5510  1.5706
12416SOL     OW38688   0.838   5.727  10.596  0.0440 -0.7674 -0.0416
12416SOL    HW138689   0.762   5.699  10.545  0.1963 -0.0949 -0.6644
12416SOL    HW238690   0.847   5.820  10.574  1.7307 -1.0895 -0.8633
12417SOL     OW38691   1.416   0.138   9.874 -0.1265 -0.1086  0.7623
12417SOL    HW138692   1.507   0.135   9.844 -0.7604  0.7354 -1.4216
12417SOL    HW238693   1.405   0.059   9.926  1.6030 -0.7201  0.2438
12418SOL     OW38694   0.399   0.164   5.098  0.0862  0.7742 -0.0733
12418SOL    HW138695   0.410   0.124   5.012  0.6935 -0.5877  0.5984
12418SOL    HW238696   0.319   0.215   5.091 -1.3849 -1.4598 -0.6961
12419SOL     OW38697   1.101   0.271   4.982  0.3336 -0.4582  0.1086
12419SOL    HW138698   1.062   0.306   4.902  1.2948 -0.4263 -0.3622
12419SOL    HW238699   1.028   0.233   5.030 -0.4330  0.5031 -0.2631
12420SOL     OW38700   5.317   7.227   3.362 -0.1536 -0.6340 -0.1722
12420SOL    HW138701   5.395   7.262   3.405 -0.8393  1.9743 -0.8449
12420SOL    HW238702   5.349   7.153   3.310  1.5076 -0.8141  1.0357
12421SOL     OW38703   7.009   1.614   2.044 -0.5855  0.1772 -1.0106
12421SOL    HW138704   6.922   1.581   2.068  0.4683 -2.7806 -0.8416
12421SOL    HW238705   7.009   1.705   2.075 -2.8837 -0.3427  0.8611
12422SOL     OW38706   1.040   1.690   3.778  0.2288 -0.3666 -0.4352
12422SOL    HW138707   1.052   1.613   3.722  0.0674 -0.8798  0.2241
12422SOL    HW238708   1.096   1.674   3.854  1.0701  0.7007 -0.8104
12423SOL     OW38709   2.152   4.803   1.741 -0.1864  0.2333  0.1548
12423SOL    HW138710   2.086   4.872   1.738 -3.2358 -2.2880  2.3051
12423SOL    HW238711   2.216   4.834   1.805 -1.7737  0.8931  1.5006
12424SOL     OW38712   1.867   6.584   6.004  0.1155  0.3848 -0.9253
12424SOL    HW138713   1.948   6.626   6.033  0.6737 -1.6132  0.6703
12424SOL    HW238714   1.893   6.495   5.981 -1.6848 -0.4983  0.1985
12425SOL     OW38715   2.427   3.785   3.827 -0.5810  0.3184  0.3388
12425SOL    HW138716   2.440   3.843   3.752 -1.2886 -0.3970 -0.3501
12425SOL    HW238717   2.334   3.762   3.825 -0.3928 -0.5557  0.8082
12426SOL     OW38718   7.513   3.872   8.146 -0.1456 -0.5421 -0.3334
12426SOL    HW138719   7.490   3.965   8.148  1.3131 -0.1477  1.4856
12426SOL    HW238720   7.446   3.829   8.200 -0.6753 -0.5261 -0.9677
12427SOL     OW38721   7.839   6.373  10.376 -0.8150  0.1318 -0.0667
12427SOL    HW138722   7.778   6.363  10.303 -1.6125 -2.3559  0.8439
12427SOL    HW238723   7.831   6.292  10.426 -0.0568  1.5723  2.6233
12428SOL     OW38724   0.802   6.535   7.636 -0.1244  0.7601  0.5457
12428SOL    HW138725   0.794   6.568   7.547 -1.7293 -0.9580 -0.0073
12428SOL    HW238726   0.712   6.530   7.668  0.1832 -1.2663  1.2267
12429SOL     OW38727   1.276   3.412   9.984  0.4879  0.1190  0.4942
12429SOL    HW138728   1.344   3.433  10.049 -0.4469  0.1389  1.4958
12429SOL    HW238729   1.280   3.317   9.976  0.0763  0.0318  1.2041
12430SOL     OW38730   0.946   7.885   3.832 -0.0251 -0.0584 -0.2130
12430SOL    HW138731   1.006   7.811   3.828 -0.2332 -0.1779 -1.4319
12430SOL    HW238732   0.878   7.858   3.894  0.7410 -0.2364  0.5677
12431SOL     OW38733   7.866   6.360   6.314  0.3131  0.5195  0.5901
12431SOL    HW138734   7.881   6.389   6.404 -1.1204  2.6114  0.2061
12431SOL    HW238735   7.785   6.404   6.287 -0.2329 -1.3861 -1.1781
12432SOL     OW38736   3.154   3.985   8.693 -0.2746 -0.2959  0.2189
12432SOL    HW138737   3.134   3.967   8.601  0.9936 -1.8222  0.1913
12432SOL    HW238738   3.233   4.038   8.690 -1.5254  1.6715  0.4205
12433SOL     OW38739   4.376   7.377  10.035 -0.3073 -0.1342  0.7371
12433SOL    HW138740   4.321   7.319   9.983 -0.0159 -0.7048  1.0552
12433SOL    HW238741   4.315   7.441  10.072 -0.6809 -0.4541  0.6761
12434SOL     OW38742   3.785   6.933   1.007  0.1105  0.0658 -0.1835
12434SOL    HW138743   3.740   6.858   1.045 -1.3686  0.6711 -0.6936
12434SOL    HW238744   3.764   6.929   0.913  0.0177  1.1204 -0.2137
12435SOL     OW38745   1.388   1.337   3.512 -0.5052 -0.2259 -0.4949
12435SOL    HW138746   1.350   1.343   3.424  3.4810 -2.1449 -2.6514
12435SOL    HW238747   1.400   1.243   3.526  1.2848  0.1525  0.8983
12436SOL     OW38748   4.146   4.910  11.522  0.4230 -0.4116  0.2545
12436SOL    HW138749   4.232   4.937  11.552  0.8111 -0.9127 -0.3904
12436SOL    HW238750   4.111   4.987  11.476 -0.0109  0.2240  1.5889
12437SOL     OW38751   1.188   5.493   9.059  0.1349 -0.1033  0.0855
12437SOL    HW138752   1.210   5.513   8.968  0.6838 -0.5572  0.1122
12437SOL    HW238753   1.240   5.415   9.079  0.6819  0.4961  1.0544
12438SOL     OW38754   7.915   5.924   5.785 -0.3498 -0.6980 -0.0890
12438SOL    HW138755   7.928   5.974   5.704  1.7105 -0.9155  0.0310
12438SOL    HW238756   7.825   5.942   5.811 -1.6517 -1.9005 -3.2790
12439SOL     OW38757   2.968   3.409   2.857 -0.3003 -0.1194 -0.3744
12439SOL    HW138758   3.000   3.458   2.933  0.0407 -0.3011 -0.4038
12439SOL    HW238759   2.939   3.325   2.893 -0.2604 -0.1550 -0.4252
12440SOL     OW38760   1.801   4.976   7.297  0.2326 -0.1703  0.3901
12440SOL    HW138761   1.768   4.895   7.260 -1.6741  1.0187 -0.6893
12440SOL    HW238762   1.781   4.970   7.391 -0.3373 -0.7528  0.2358
12441SOL     OW38763   6.455   3.174   2.575 -1.0228 -0.2718  0.0832
12441SOL    HW138764   6.476   3.181   2.481 -1.2719  1.7322  0.1319
12441SOL    HW238765   6.530   3.215   2.618 -1.3503 -0.3266  0.7057
12442SOL     OW38766   5.564   3.724   8.922 -0.6618 -0.2250  0.2016
12442SOL    HW138767   5.587   3.758   8.835 -0.0714 -1.7279 -0.2545
12442SOL    HW238768   5.488   3.668   8.907 -0.2320 -0.9163  0.5632
12443SOL     OW38769   6.918   2.416   0.836  0.4398  0.1232 -0.0246
12443SOL    HW138770   6.842   2.460   0.874 -0.5361 -0.4052 -1.2732
12443SOL    HW238771   6.945   2.353   0.903  0.9296  1.5222  1.1629
12444SOL     OW38772   3.054   3.919  11.811 -0.4372  0.5893  0.3017
12444SOL    HW138773   2.958   3.919  11.821 -0.4126 -0.1534  0.5916
12444SOL    HW238774   3.072   3.996  11.757 -1.2785  0.2762 -0.4642
12445SOL     OW38775   1.017   3.920   1.313  0.0158 -0.1073  0.3724
12445SOL    HW138776   1.102   3.878   1.296  0.5662  1.3510 -0.7134
12445SOL    HW238777   0.978   3.930   1.227 -1.7762 -1.6443  0.9253
12446SOL     OW38778   5.912   5.669   6.448  0.0560 -0.1260 -0.0711
12446SOL    HW138779   5.958   5.751   6.468 -1.3110  0.1860  2.1050
12446SOL    HW238780   5.923   5.658   6.353  0.8783  2.1906 -0.3119
12447SOL     OW38781   1.073   3.588   8.058  0.0210  0.5768 -0.6794
12447SOL    HW138782   1.096   3.507   8.104 -0.8387  1.4988  1.5372
12447SOL    HW238783   1.142   3.600   7.994  1.5947 -0.5771  0.7051
12448SOL     OW38784   4.631   2.340   2.975  0.4758 -0.1366  0.0296
12448SOL    HW138785   4.689   2.267   2.952 -1.0407 -1.6408  0.7709
12448SOL    HW238786   4.604   2.377   2.891  0.1055 -1.3942 -0.4209
12449SOL     OW38787   4.524   2.805   5.631 -0.0967 -0.2597  0.2178
12449SOL    HW138788   4.446   2.760   5.597 -1.1687  0.4569  1.5925
12449SOL    HW238789   4.519   2.893   5.592  0.3169 -0.3710 -0.0906
12450SOL     OW38790   2.814   4.856  10.425 -0.8234  0.0967 -0.3680
12450SOL    HW138791   2.872   4.925  10.457 -0.2743 -0.0980 -0.9274
12450SOL    HW238792   2.834   4.850  10.332 -1.0351 -0.6614 -0.3669
12451SOL     OW38793   7.215   6.499   3.361 -0.3106  0.1295  0.0034
12451SOL    HW138794   7.151   6.569   3.376 -0.2649  0.2321 -0.2751
12451SOL    HW238795   7.191   6.431   3.424 -0.3834  0.3749  0.2463
12452SOL     OW38796   7.318   6.071   2.513 -0.2372 -0.5462 -0.2527
12452SOL    HW138797   7.369   5.995   2.540 -0.6928 -0.3721  1.2293
12452SOL    HW238798   7.233   6.059   2.555 -1.3218 -0.6474 -2.3902
12453SOL     OW38799   0.668   1.035   9.052 -0.8412 -0.5748 -0.0920
12453SOL    HW138800   0.755   1.043   9.014 -1.7213 -0.0003 -2.1381
12453SOL    HW238801   0.622   0.974   8.994 -2.3437  0.5738 -0.1636
12454SOL     OW38802   5.357   7.918  11.310  0.2013 -0.6638  0.5654
12454SOL    HW138803   5.370   7.972  11.388  1.8797 -0.7337  0.3764
12454SOL    HW238804   5.397   7.969  11.239 -0.4385 -1.0344 -0.0772
12455SOL     OW38805   7.819   7.169   7.355  0.6317 -0.2115 -0.6463
12455SOL    HW138806   7.902   7.146   7.314  0.3980 -1.1524 -0.5987
12455SOL    HW238807   7.809   7.263   7.337  2.3013  0.2226  0.4083
12456SOL     OW38808   1.558   3.618   9.727 -0.8512 -0.7211 -0.0583
12456SOL    HW138809   1.616   3.542   9.740 -0.7178 -0.4323  1.1982
12456SOL    HW238810   1.597   3.686   9.782 -0.3405  0.6309 -2.0047
12457SOL     OW38811   6.620   3.163   8.073  0.8714 -0.2841  0.3230
12457SOL    HW138812   6.540   3.212   8.058  0.8523 -0.0357  1.1839
12457SOL    HW238813   6.607   3.080   8.026  1.8186  1.3450 -3.0741
12458SOL     OW38814   3.108   2.399  10.430 -0.4907  0.1441 -0.2677
12458SOL    HW138815   3.054   2.441  10.496  0.2974  0.5837  0.1096
12458SOL    HW238816   3.088   2.446  10.349 -2.1240 -0.9680 -0.5663
12459SOL     OW38817   7.085   2.030   3.772  0.3305 -0.1727  0.1469
12459SOL    HW138818   7.105   2.007   3.863 -0.2759  0.3917  0.4349
12459SOL    HW238819   7.090   2.126   3.770  0.9098 -0.2120 -0.5559
12460SOL     OW38820   4.876   7.368   3.609 -0.5974 -0.0815  0.2350
12460SOL    HW138821   4.872   7.393   3.701  2.3967  2.0112 -0.0617
12460SOL    HW238822   4.800   7.411   3.569 -1.6627 -0.6223  1.6146
12461SOL     OW38823   2.847   1.336   0.339 -0.4092  0.0402  0.4226
12461SOL    HW138824   2.910   1.403   0.363 -0.8422  0.5228  0.2197
12461SOL    HW238825   2.896   1.254   0.344 -0.6069  0.0087  3.5666
12462SOL     OW38826   5.337   0.351   4.944  0.1532  0.3441 -0.0999
12462SOL    HW138827   5.431   0.366   4.953  0.6626 -2.8343  0.9944
12462SOL    HW238828   5.324   0.335   4.851  0.8604 -0.0683 -0.1368
12463SOL     OW38829   0.454   1.479   4.944 -0.6395 -0.7469 -0.5079
12463SOL    HW138830   0.474   1.405   5.001 -2.7742 -0.6548  0.4583
12463SOL    HW238831   0.385   1.447   4.887 -2.7563  0.8671  0.9761
12464SOL     OW38832   0.435   3.613   3.791  0.2913  0.0876 -0.0593
12464SOL    HW138833   0.385   3.648   3.865  1.3444 -0.0623  0.7336
12464SOL    HW238834   0.421   3.519   3.795  0.7771  0.0289  0.2684
12465SOL     OW38835   6.245   5.313  12.225 -0.4014  0.1028  0.0928
12465SOL    HW138836   6.253   5.407  12.240 -1.9583  0.4088 -0.7424
12465SOL    HW238837   6.262   5.302  12.131 -0.8038 -0.3660  0.0686
12466SOL     OW38838   6.119   6.247   6.163 -0.2216 -0.1426  0.5864
12466SOL    HW138839   6.118   6.338   6.134 -0.4147 -0.1611  0.5329
12466SOL    HW238840   6.040   6.238   6.217  0.1886 -0.0810  1.1991
12467SOL     OW38841   4.164   7.181   0.365  0.0120 -0.2855 -0.0080
12467SOL    HW138842   4.196   7.166   0.454  0.7487 -2.2669 -0.5664
12467SOL    HW238843   4.081   7.133   0.361 -0.2955  0.2540 -0.2418
12468SOL     OW38844   2.967   0.141   5.746 -0.8690 -0.7859  0.0920
12468SOL    HW138845   2.977   0.057   5.702 -0.5698 -0.3551 -0.7046
12468SOL    HW238846   2.961   0.120   5.839  1.8783 -1.5146  0.1993
12469SOL     OW38847   7.011   0.006   6.382  0.3934  0.5584  0.1990
12469SOL    HW138848   7.052   0.092   6.394  0.3338  0.8329 -1.4062
12469SOL    HW238849   7.081  -0.049   6.346 -0.5969  1.0966 -2.8067
12470SOL     OW38850   0.572   0.091   7.821 -0.4016  0.5078 -0.1391
12470SOL    HW138851   0.552   0.121   7.733  1.3558  1.4936 -0.2402
12470SOL    HW238852   0.496   0.117   7.874 -1.2268  0.3839 -1.2394
12471SOL     OW38853   5.574   6.824   9.309 -0.1598 -0.5282  0.4536
12471SOL    HW138854   5.610   6.805   9.396  0.8487 -2.3284 -0.3045
12471SOL    HW238855   5.492   6.775   9.306  0.7489 -2.0965 -0.2506
12472SOL     OW38856   1.094   0.505   0.738 -0.7571  0.2194  0.2155
12472SOL    HW138857   1.158   0.483   0.806 -1.4965  0.9145  1.1709
12472SOL    HW238858   1.087   0.425   0.685  0.8118  0.0964  0.1286
12473SOL     OW38859   6.995   0.553   9.085  0.2022  0.4806  0.2802
12473SOL    HW138860   7.001   0.647   9.069  0.8494  0.1963 -1.2430
12473SOL    HW238861   7.058   0.536   9.155  0.9401  1.0075 -0.2471
12474SOL     OW38862   4.092   4.623   5.635  0.0831  0.0573  0.6746
12474SOL    HW138863   4.062   4.710   5.663 -1.1706  0.0349 -0.4935
12474SOL    HW238864   4.147   4.640   5.559  0.0670 -0.1498  0.6168
12475SOL     OW38865   2.407   6.660   7.268  0.5369  0.2310 -0.2457
12475SOL    HW138866   2.342   6.677   7.200  0.4296 -3.5404 -1.3511
12475SOL    HW238867   2.384   6.573   7.301  3.2980  0.0071  1.3745
12476SOL     OW38868   7.807   6.582  10.180 -0.4401 -0.6217  0.1038
12476SOL    HW138869   7.752   6.520  10.133 -1.4643 -1.0238  1.7333
12476SOL    HW238870   7.828   6.539  10.263  2.4544 -0.5054 -0.4503
12477SOL     OW38871   7.854   1.934   9.074 -0.5934 -0.3651  0.0978
12477SOL    HW138872   7.793   1.894   9.136 -0.5201 -0.4859  0.0914
12477SOL    HW238873   7.806   2.009   9.039 -0.4233  0.0514  0.7361
12478SOL     OW38874   3.506   0.621   7.554  0.0111  0.0997 -0.4658
12478SOL    HW138875   3.419   0.658   7.567  0.6458  1.3026  0.6547
12478SOL    HW238876   3.495   0.528   7.575 -1.1230  0.0938 -0.9924
12479SOL     OW38877   1.605   6.063   6.076  0.3849 -0.0715 -0.0035
12479SOL    HW138878   1.615   6.016   6.158 -0.6495  0.4024  0.4083
12479SOL    HW238879   1.674   6.130   6.078  0.7652 -0.4671  0.1816
12480SOL     OW38880   1.373   2.361   0.159 -0.0561  0.2253 -0.0818
12480SOL    HW138881   1.465   2.341   0.176  0.0146  0.9576  0.4630
12480SOL    HW238882   1.376   2.443   0.108 -0.3000 -1.3981 -2.8936
12481SOL     OW38883   3.336   2.637   0.129  0.4521  0.2744 -0.0169
12481SOL    HW138884   3.400   2.708   0.120  0.4571  0.2167 -0.4411
12481SOL    HW238885   3.389   2.558   0.140  0.4489  0.2759  0.0094
12482SOL     OW38886   4.039   4.184   1.533  0.0744 -1.0005 -0.1147
12482SOL    HW138887   4.055   4.130   1.610  1.2415 -0.4344  0.0700
12482SOL    HW238888   3.944   4.199   1.533  0.0542 -1.0139  1.2051
12483SOL     OW38889   6.567   2.537   7.913  0.0922 -0.4268  0.0849
12483SOL    HW138890   6.581   2.542   8.008  2.1907 -1.3375 -0.1247
12483SOL    HW238891   6.640   2.585   7.875 -0.1625 -0.9315 -1.0843
12484SOL     OW38892   0.872   5.520   6.244 -0.3593  0.7381  0.2619
12484SOL    HW138893   0.840   5.567   6.167 -2.2305  0.7906  1.0203
12484SOL    HW238894   0.868   5.428   6.219 -0.6859  0.7675  0.2036
12485SOL     OW38895   5.613   4.727   8.284  0.1119 -0.2861 -0.1882
12485SOL    HW138896   5.604   4.713   8.190 -1.0524 -1.1285  0.0327
12485SOL    HW238897   5.621   4.822   8.293 -0.1078 -0.1693 -1.1147
12486SOL     OW38898   0.745   5.955   3.332 -0.2832  0.1521 -0.4948
12486SOL    HW138899   0.662   5.973   3.287  0.5244 -0.9920 -2.5720
12486SOL    HW238900   0.765   6.037   3.378 -2.0601  0.7823 -0.7714
12487SOL     OW38901   3.518   1.329   1.610  0.1677  0.3094 -0.4027
12487SOL    HW138902   3.583   1.308   1.543 -0.8610  0.6109 -1.5398
12487SOL    HW238903   3.482   1.413   1.582 -0.5638  0.2459  0.3217
12488SOL     OW38904   7.081   6.548   6.401  0.9555  0.9418 -0.3412
12488SOL    HW138905   7.088   6.607   6.326  0.1989  1.0637 -0.3209
12488SOL    HW238906   6.990   6.556   6.430  1.1258  0.5674  0.3212
12489SOL     OW38907   4.035   7.452   5.597  0.0334 -0.0881  0.0910
12489SOL    HW138908   4.052   7.401   5.677  1.3907 -1.5352 -1.0552
12489SOL    HW238909   3.954   7.415   5.563  0.0623 -0.2616  0.2045
12490SOL     OW38910   5.689   0.036   8.441  0.0897 -0.0339  0.0193
12490SOL    HW138911   5.683   0.060   8.534  0.1121  0.6239 -0.1453
12490SOL    HW238912   5.674  -0.058   8.440 -1.7568  0.2174  0.4955
12491SOL     OW38913   2.342   7.346   5.925 -0.2505 -0.4524 -0.2925
12491SOL    HW138914   2.266   7.400   5.902 -1.0163 -1.3227  0.1186
12491SOL    HW238915   2.346   7.351   6.021  1.5728  1.3676 -0.4037
12492SOL     OW38916   5.489   4.900   7.297  0.7081 -0.0492  0.6556
12492SOL    HW138917   5.429   4.907   7.223  0.1635  0.5119  1.1538
12492SOL    HW238918   5.485   4.807   7.322  0.4510 -0.1181  0.3640
12493SOL     OW38919   3.551   0.843   4.070 -0.0276 -0.3560  0.1275
12493SOL    HW138920   3.494   0.767   4.055 -0.7847 -0.0712  1.4235
12493SOL    HW238921   3.635   0.818   4.032 -0.2031 -1.9247  0.7098
12494SOL     OW38922   7.173   6.454   1.948 -0.0541 -0.1415  0.0804
12494SOL    HW138923   7.185   6.381   1.888  0.4171 -1.5976  1.8611
12494SOL    HW238924   7.088   6.491   1.924  0.4888 -0.1143 -2.0005
12495SOL     OW38925   6.692   0.272   1.518 -0.3742  0.3983  0.2699
12495SOL    HW138926   6.635   0.334   1.473 -2.0625 -1.4634 -0.2833
12495SOL    HW238927   6.781   0.302   1.497 -1.1120  1.2371 -1.9290
12496SOL     OW38928   7.698   2.713   8.616 -0.1091  0.5540  0.0856
12496SOL    HW138929   7.653   2.723   8.699 -0.7183  1.9242 -0.3919
12496SOL    HW238930   7.791   2.726   8.637  0.1669 -2.2670  1.0631
12497SOL     OW38931   0.288   2.839   2.231  0.6831 -0.5400 -0.6347
12497SOL    HW138932   0.374   2.823   2.270  0.5072  2.1804  1.1473
12497SOL    HW238933   0.226   2.825   2.303 -0.1762 -0.3369 -1.3126
12498SOL     OW38934   6.809   7.592   9.406 -0.2787  0.6281  0.0167
12498SOL    HW138935   6.831   7.680   9.436  1.2534  0.1816  0.3080
12498SOL    HW238936   6.892   7.545   9.409 -0.4809 -0.0582 -2.8059
12499SOL     OW38937   5.841   6.134   4.702  0.0672  0.1032 -0.3268
12499SOL    HW138938   5.859   6.191   4.628 -0.1622 -0.0827 -0.5283
12499SOL    HW238939   5.745   6.133   4.710 -0.0643 -1.6922 -1.4909
12500SOL     OW38940   7.025   2.030   8.172  0.3383  0.1939  0.0175
12500SOL    HW138941   6.977   1.965   8.223 -2.3630  1.8913 -0.1266
12500SOL    HW238942   7.009   2.006   8.081 -0.8253  1.0575 -0.0397
12501SOL     OW38943   1.424   3.511   4.631 -0.0533  0.0112 -0.1601
12501SOL    HW138944   1.334   3.543   4.632  0.6043  2.0351 -0.6791
12501SOL    HW238945   1.442   3.490   4.723 -0.4185  1.6130  0.3236
12502SOL     OW38946   0.061   1.223   6.443 -0.5799  0.6742  0.5877
12502SOL    HW138947   0.016   1.176   6.372 -0.2491  2.0673 -0.5787
12502SOL    HW238948  -0.006   1.232   6.511 -1.0213 -0.3354  0.3183
12503SOL     OW38949   5.274   1.432   1.124  0.0610  0.7100 -0.1173
12503SOL    HW138950   5.252   1.454   1.214 -0.0256 -1.9437  0.5716
12503SOL    HW238951   5.370   1.428   1.123  0.0374  0.1095  0.0202
12504SOL     OW38952   2.157   6.206   6.793 -0.1482 -0.2092 -0.1330
12504SOL    HW138953   2.233   6.211   6.736  1.9063 -0.0465  2.4256
12504SOL    HW238954   2.170   6.276   6.857 -2.0199 -0.7256  0.9031
12505SOL     OW38955   6.457   7.449   0.173 -0.4176 -0.1210  0.4396
12505SOL    HW138956   6.394   7.437   0.102 -0.2643  1.5267 -0.0224
12505SOL    HW238957   6.486   7.361   0.194 -1.6549 -0.7749 -0.4554
12506SOL     OW38958   1.871   1.260  11.011 -0.5222  0.1374  0.7736
12506SOL    HW138959   1.895   1.170  10.988 -0.9889  0.2313 -0.1074
12506SOL    HW238960   1.835   1.296  10.931 -0.1514  1.1829  1.0660
12507SOL     OW38961   6.677   3.597   2.212  0.3707 -0.2015 -0.0543
12507SOL    HW138962   6.768   3.625   2.216  1.2600 -2.7803 -0.3326
12507SOL    HW238963   6.649   3.619   2.123 -0.3406  3.3482  0.9265
12508SOL     OW38964   6.918   1.433   2.453 -0.0913  0.1462  0.1157
12508SOL    HW138965   6.857   1.472   2.390  1.7988  2.3359 -0.4823
12508SOL    HW238966   6.889   1.466   2.538 -2.4822 -2.6017  0.5671
12509SOL     OW38967   5.585   2.584   7.758  0.0962 -0.2365 -0.0631
12509SOL    HW138968   5.497   2.567   7.792 -0.6672  0.6547 -1.5086
12509SOL    HW238969   5.642   2.529   7.812 -1.4256 -1.5201  0.3215
12510SOL     OW38970   7.901   1.543   9.542  0.3430  0.2722  0.1311
12510SOL    HW138971   7.927   1.453   9.526 -0.5079  0.0954 -0.3088
12510SOL    HW238972   7.925   1.589   9.461 -1.5972 -0.1049 -0.7225
12511SOL     OW38973   3.304   5.938   4.339  0.1663 -0.2849 -0.1432
12511SOL    HW138974   3.380   5.912   4.287  0.1300 -1.3162  0.2987
12511SOL    HW238975   3.323   6.029   4.365 -0.1575  0.5612 -2.5617
12512SOL     OW38976   2.822   4.002   2.053  0.2216 -0.1394 -0.0733
12512SOL    HW138977   2.756   3.979   1.989  1.4849  2.4146 -2.4988
12512SOL    HW238978   2.880   3.926   2.057 -0.4563 -0.7277 -1.1843
12513SOL     OW38979   1.921   4.636   1.780  0.0714 -0.1896 -0.2157
12513SOL    HW138980   1.873   4.672   1.705 -1.6746  1.3576  1.5167
12513SOL    HW238981   2.000   4.690   1.785 -2.1757  3.3183  1.9124
12514SOL     OW38982   2.820   7.088   5.985  0.1469 -0.2726  0.1007
12514SOL    HW138983   2.884   7.136   5.932 -1.1192  0.3766 -0.8835
12514SOL    HW238984   2.770   7.037   5.922 -0.1265 -0.9977  0.8921
12515SOL     OW38985   2.332   7.583   8.236 -0.1206 -0.2814 -0.0512
12515SOL    HW138986   2.307   7.636   8.160  0.9138  0.9840  0.4534
12515SOL    HW238987   2.346   7.496   8.200 -0.9929 -0.0367 -1.0613
12516SOL     OW38988   5.476   7.185  11.309 -0.5819 -0.3932  0.0687
12516SOL    HW138989   5.486   7.091  11.294 -0.5179 -0.4666  0.5627
12516SOL    HW238990   5.476   7.195  11.404  0.2713  0.1952  0.0204
12517SOL     OW38991   3.831   5.801  10.281  0.0921 -0.3722  0.1952
12517SOL    HW138992   3.793   5.885  10.307 -1.2757 -1.3794  1.6392
12517SOL    HW238993   3.920   5.803  10.317 -0.2322  0.1067  0.9947
12518SOL     OW38994   6.287   4.892   3.111 -0.6330  0.2231 -0.0607
12518SOL    HW138995   6.282   4.978   3.071  0.1187 -0.4112 -1.5640
12518SOL    HW238996   6.349   4.843   3.057 -0.2727 -0.9563  1.3528
12519SOL     OW38997   3.997   4.020   2.055  0.6641  0.0490 -0.1320
12519SOL    HW138998   4.030   3.935   2.025  0.8483 -0.1889  0.7383
12519SOL    HW238999   4.070   4.059   2.101  0.4353  0.4984 -0.1471
12520SOL     OW39000   7.234   6.201   2.275 -0.4495 -0.0089  0.0742
12520SOL    HW139001   7.266   6.141   2.342  2.0422 -0.7520 -1.6339
12520SOL    HW239002   7.189   6.144   2.212  1.0242 -0.0303 -1.0263
12521SOL     OW39003   2.706   4.677   9.810  0.4187 -0.3266 -0.0963
12521SOL    HW139004   2.721   4.600   9.754  1.6466  0.2426 -0.5708
12521SOL    HW239005   2.679   4.640   9.894 -2.4578 -1.2095 -1.2490
12522SOL     OW39006   5.916   6.733   3.402 -0.4220  0.2380  0.2810
12522SOL    HW139007   5.957   6.741   3.488 -0.7376 -0.1496  0.4705
12522SOL    HW239008   5.947   6.810   3.353 -0.1842  0.4197  0.7135
12523SOL     OW39009   7.777   1.251   1.271 -0.1166  0.5278  0.4773
12523SOL    HW139010   7.726   1.281   1.195  1.7866 -1.5567 -1.8105
12523SOL    HW239011   7.827   1.328   1.297 -1.2962  1.4750  0.0870
12524SOL     OW39012   7.502   3.120   8.476  0.0146  0.1018 -0.1521
12524SOL    HW139013   7.434   3.056   8.497  1.1713 -0.2589  3.1007
12524SOL    HW239014   7.502   3.180   8.551  3.5837 -0.2771  0.3451
12525SOL     OW39015   1.189   1.402   6.330  0.3189 -0.3007  0.0876
12525SOL    HW139016   1.261   1.346   6.359  1.6791  0.0222 -2.4347
12525SOL    HW239017   1.204   1.414   6.236 -0.3716  3.5492  0.3131
12526SOL     OW39018   0.807   3.983   5.254 -0.3736 -0.3447  0.0800
12526SOL    HW139019   0.879   3.920   5.249 -0.8195 -0.9194  0.7270
12526SOL    HW239020   0.779   3.979   5.345  0.0564  1.3321  0.3152
12527SOL     OW39021   2.087   0.373   9.061 -0.3784 -0.5781  0.0856
12527SOL    HW139022   2.046   0.438   9.003 -2.3588 -1.1645  0.7601
12527SOL    HW239023   2.156   0.333   9.007 -2.0528 -0.9973 -1.8615
12528SOL     OW39024   4.351   6.911  10.070 -0.1721 -0.0416 -0.4695
12528SOL    HW139025   4.354   7.007  10.074  2.8048 -0.0587  0.1464
12528SOL    HW239026   4.339   6.891   9.977 -2.4599  0.8595 -0.4244
12529SOL     OW39027   1.587   6.303   3.079  0.0411  0.3109  0.7294
12529SOL    HW139028   1.659   6.250   3.111  0.4810  0.1238 -0.4968
12529SOL    HW239029   1.542   6.246   3.016 -0.5214  0.7934  0.6868
12530SOL     OW39030   0.583   5.760  11.446  0.6463 -0.1986 -0.8272
12530SOL    HW139031   0.630   5.811  11.512  0.0566 -0.0757 -0.4912
12530SOL    HW239032   0.623   5.787  11.363  0.8135  0.2943 -0.5948
12531SOL     OW39033   3.243   2.040   8.101 -0.0200 -0.3646 -0.1119
12531SOL    HW139034   3.186   2.101   8.147  1.5997  0.9624  0.2279
12531SOL    HW239035   3.211   1.953   8.127 -2.9605  0.2407 -1.3271
12532SOL     OW39036   7.052   2.194   3.029  0.4854 -0.0861 -0.2836
12532SOL    HW139037   7.070   2.278   3.072 -0.0188  0.9776 -2.0786
12532SOL    HW239038   7.107   2.131   3.077  0.1662  1.0566  1.7081
12533SOL     OW39039   5.931   4.971   1.158 -0.0606 -0.8852  0.3265
12533SOL    HW139040   5.853   4.946   1.108  0.1363  0.1218 -0.5330
12533SOL    HW239041   5.942   4.901   1.223 -2.3303 -0.4975  1.2271
12534SOL     OW39042   7.619   7.003   3.981  0.1730  0.1924  0.8225
12534SOL    HW139043   7.570   7.011   4.063  0.4363 -1.9628  1.2672
12534SOL    HW239044   7.552   7.013   3.913 -0.4042  0.1008  1.3623
12535SOL     OW39045   1.085   0.003   5.892 -0.3231 -0.7253 -0.0578
12535SOL    HW139046   1.087  -0.067   5.957  0.6065 -0.9204 -0.2805
12535SOL    HW239047   1.157  -0.017   5.833  0.2179  0.6288  0.1088
12536SOL     OW39048   7.339   4.981   8.632  0.9705 -0.8111 -0.0494
12536SOL    HW139049   7.318   4.893   8.662 -0.5999 -0.1681  0.8620
12536SOL    HW239050   7.254   5.021   8.613  1.6737  0.4111 -0.7466
12537SOL     OW39051   2.254   2.302   8.513  0.1511  0.3970 -0.2385
12537SOL    HW139052   2.346   2.292   8.536  0.1395  0.0161 -0.3639
12537SOL    HW239053   2.234   2.394   8.535  1.0594  1.0479 -1.9571
12538SOL     OW39054   0.136   5.850   0.481  0.4707 -0.6564 -0.1749
12538SOL    HW139055   0.204   5.842   0.415  1.9655  1.4337  0.9837
12538SOL    HW239056   0.079   5.920   0.449  0.9445  0.0527  0.4957
12539SOL     OW39057   0.829   6.893   7.730 -0.1643 -0.0732  0.4073
12539SOL    HW139058   0.908   6.842   7.711  0.7347  0.9467  1.3007
12539SOL    HW239059   0.782   6.841   7.796 -0.2931 -0.7138 -0.1716
12540SOL     OW39060   5.622   3.494   1.540 -0.5830 -0.8537 -0.1242
12540SOL    HW139061   5.690   3.500   1.473  0.9648 -2.2090  1.2568
12540SOL    HW239062   5.669   3.474   1.621 -2.5952 -1.5675  0.9408
12541SOL     OW39063   2.407   0.257   7.477 -0.6434 -0.5060  0.8313
12541SOL    HW139064   2.326   0.206   7.473  0.0662 -1.9032  2.5468
12541SOL    HW239065   2.398   0.311   7.555 -1.0025  1.3827 -0.4727
12542SOL     OW39066   5.955   2.084   0.538  0.2952  0.0364 -0.4564
12542SOL    HW139067   6.035   2.034   0.554  1.3913  1.2810 -1.6973
12542SOL    HW239068   5.949   2.144   0.612  0.8714  0.3319 -0.6369
12543SOL     OW39069   0.403   5.376   4.837 -0.0478 -0.0034 -0.5012
12543SOL    HW139070   0.430   5.285   4.821  0.9146  0.3898 -1.2196
12543SOL    HW239071   0.362   5.374   4.924 -0.1653 -1.1445 -0.5657
12544SOL     OW39072   1.582   0.389  10.411  0.0867  0.0024 -0.2682
12544SOL    HW139073   1.612   0.307  10.371  0.0086 -0.0163 -0.2886
12544SOL    HW239074   1.659   0.447  10.407  0.7935 -0.7289  1.6119
12545SOL     OW39075   5.709   3.811   8.282  0.9243 -0.1711  0.3025
12545SOL    HW139076   5.730   3.904   8.275  0.0303  0.0493  0.4483
12545SOL    HW239077   5.786   3.772   8.323  0.9281  0.6611  1.1091
12546SOL     OW39078   4.318   6.865   4.529  0.2405 -0.0568 -0.1989
12546SOL    HW139079   4.239   6.826   4.493 -0.5629  1.4142 -0.1099
12546SOL    HW239080   4.362   6.904   4.453 -0.0690  0.7154  0.0138
12547SOL     OW39081   6.150   4.110   4.224  0.0455 -0.3446 -0.6912
12547SOL    HW139082   6.092   4.068   4.287 -1.5141  1.5024 -0.7951
12547SOL    HW239083   6.219   4.150   4.277  0.5664 -1.4820 -0.4670
12548SOL     OW39084   4.454   3.971   0.542  0.2141  0.3139  0.0086
12548SOL    HW139085   4.541   3.980   0.582 -0.2693  0.5748  1.0526
12548SOL    HW239086   4.451   3.881   0.511  1.0948  0.4930 -0.6407
12549SOL     OW39087   0.474   5.970   4.215  0.0518 -0.2144  0.4633
12549SOL    HW139088   0.426   6.031   4.158  1.1092  0.9186  0.7548
12549SOL    HW239089   0.427   5.973   4.298  0.1576  0.2946  0.5076
12550SOL     OW39090   4.536   5.175   9.503  0.2653  0.1537  0.1652
12550SOL    HW139091   4.624   5.164   9.538 -0.1553  0.2664  1.3104
12550SOL    HW239092   4.526   5.103   9.440  0.4261 -1.2014  1.6202
12551SOL     OW39093   1.038   4.692   6.571  0.0186  0.1799  0.1356
12551SOL    HW139094   0.987   4.773   6.579 -0.5769 -0.0855 -0.9462
12551SOL    HW239095   1.051   4.664   6.662 -0.8887  0.7835  0.4678
12552SOL     OW39096   3.395   7.211   1.920 -0.5425  0.1119  0.0888
12552SOL    HW139097   3.469   7.231   1.978 -0.7010  0.2321  0.2529
12552SOL    HW239098   3.320   7.253   1.963 -1.1210 -1.8133  1.0666
12553SOL     OW39099   6.068   0.742  12.285  0.6294  0.2105 -0.1565
12553SOL    HW139100   6.064   0.739  12.189 -0.0547 -0.7372 -0.1202
12553SOL    HW239101   6.159   0.721  12.306  0.3064 -1.7866 -0.5677
12554SOL     OW39102   3.383   7.358   7.277 -0.1730  0.3580  0.1393
12554SOL    HW139103   3.445   7.411   7.227  1.1497 -0.6019  0.7109
12554SOL    HW239104   3.314   7.337   7.214  0.8873  0.1219 -0.9824
12555SOL     OW39105   7.228   1.783   8.750 -0.4244 -0.4866  0.4665
12555SOL    HW139106   7.137   1.811   8.762  0.2410  0.7356  3.2148
12555SOL    HW239107   7.281   1.856   8.783  1.5722 -1.4853 -0.3519
12556SOL     OW39108   7.458   6.320  12.035 -0.2567  0.0388  0.0005
12556SOL    HW139109   7.443   6.230  12.006  0.6285 -0.1280  0.0371
12556SOL    HW239110   7.553   6.329  12.038 -0.3303  1.0264 -0.1540
12557SOL     OW39111   1.024   6.979   8.428 -0.4369 -0.1107 -0.3409
12557SOL    HW139112   0.974   7.052   8.466  1.0132  1.0010 -0.4886
12557SOL    HW239113   1.059   6.933   8.504 -0.4937 -0.0277 -0.2640
12558SOL     OW39114   7.118   1.951   6.039 -0.2381  0.1960 -0.5030
12558SOL    HW139115   7.141   1.995   5.956 -0.1016  0.2577 -0.4332
12558SOL    HW239116   7.028   1.980   6.057  0.5449  2.1545  0.6275
12559SOL     OW39117   6.998   1.739   7.167  0.1704  0.2157 -0.3961
12559SOL    HW139118   7.047   1.759   7.086 -0.0082  0.4908 -0.4380
12559SOL    HW239119   6.922   1.689   7.137 -1.0720  2.1688 -0.6737
12560SOL     OW39120   3.573   1.731   6.217 -0.1923 -0.1702 -0.2577
12560SOL    HW139121   3.564   1.820   6.250  0.6028  0.0254 -0.5684
12560SOL    HW239122   3.593   1.740   6.124  3.1290 -0.5322  0.3047
12561SOL     OW39123   6.058   5.101   3.124 -0.1302  0.0089 -0.7447
12561SOL    HW139124   6.028   5.103   3.033  0.0310  0.6650 -0.7907
12561SOL    HW239125   6.017   5.023   3.161 -1.5127  0.6096 -0.9343
12562SOL     OW39126   1.857   1.445   3.316 -0.2009 -0.0440 -0.8079
12562SOL    HW139127   1.793   1.424   3.248 -0.0025 -0.5690 -0.8335
12562SOL    HW239128   1.919   1.503   3.272  0.2283 -0.8078 -1.2351
12563SOL     OW39129   3.720   4.629   9.211  0.3344 -0.0249  0.1924
12563SOL    HW139130   3.723   4.693   9.140 -0.6307 -0.9412 -0.7210
12563SOL    HW239131   3.807   4.632   9.251  0.3335  1.7839  0.1354
12564SOL     OW39132   4.226   1.053   2.134 -0.2028  0.1637 -0.2602
12564SOL    HW139133   4.280   0.987   2.089 -0.5470 -0.8284  0.7434
12564SOL    HW239134   4.186   1.103   2.063  1.1816  0.2142 -1.0344
12565SOL     OW39135   7.352   7.420   6.145  0.1660  0.1982 -0.0630
12565SOL    HW139136   7.298   7.350   6.108  1.6789 -0.4821 -1.0878
12565SOL    HW239137   7.325   7.498   6.098 -0.1582 -0.0643 -0.3216
12566SOL     OW39138   4.313   7.072   4.251  0.3623 -0.0932  0.4909
12566SOL    HW139139   4.239   7.051   4.308 -1.0974  1.0177 -0.8861
12566SOL    HW239140   4.297   7.162   4.222  2.2209  0.1532  0.0598
12567SOL     OW39141   7.886   1.875   0.861  0.5533  0.2840  0.2119
12567SOL    HW139142   7.849   1.864   0.949 -0.8448 -0.2220 -0.4076
12567SOL    HW239143   7.851   1.801   0.811  2.4919 -0.2560 -0.4196
12568SOL     OW39144   7.255   2.004   1.397 -0.0260  0.1537  0.1483
12568SOL    HW139145   7.346   2.024   1.374  0.6948  0.4139  2.9103
12568SOL    HW239146   7.220   2.086   1.431 -0.7404 -0.3710  0.7153
12569SOL     OW39147   0.120   7.048   8.984 -0.0014  0.4501 -0.7703
12569SOL    HW139148   0.163   7.133   8.974  1.5460  0.0690  1.5659
12569SOL    HW239149   0.103   7.042   9.078 -0.2596 -1.7281 -0.9163
12570SOL     OW39150   5.695   4.609   4.114 -0.0894  0.5473 -0.2862
12570SOL    HW139151   5.713   4.608   4.020 -1.3399 -0.0597 -0.5303
12570SOL    HW239152   5.744   4.535   4.149  1.8408  1.8251 -0.1478
12571SOL     OW39153   4.509   1.488   6.931  0.1667  0.1427 -0.6763
12571SOL    HW139154   4.538   1.573   6.964  1.6955 -0.1177 -1.2460
12571SOL    HW239155   4.548   1.482   6.844  0.7211 -1.4545 -0.3501
12572SOL     OW39156   1.103   7.357   0.864 -0.4762  0.5267 -0.0264
12572SOL    HW139157   1.129   7.344   0.772 -0.5837  0.2849 -0.0240
12572SOL    HW239158   1.174   7.409   0.901  1.3827 -2.2748  0.6462
12573SOL     OW39159   7.401   5.089   1.681 -0.0577 -0.8141  0.2618
12573SOL    HW139160   7.428   5.130   1.599 -0.0852 -1.3947 -0.0433
12573SOL    HW239161   7.316   5.051   1.662  0.5768 -2.2370  0.0983
12574SOL     OW39162   7.597   5.048  10.611 -0.2346  0.0276  0.3879
12574SOL    HW139163   7.583   5.127  10.559 -0.9619  0.5788  1.3800
12574SOL    HW239164   7.596   4.977  10.548 -0.1978  0.7538 -0.4482
12575SOL     OW39165   2.401   4.782   8.701  0.2879 -0.3249  0.4647
12575SOL    HW139166   2.361   4.734   8.774  0.3930 -0.9175  0.1441
12575SOL    HW239167   2.422   4.868   8.737  1.9173 -1.1579  1.6505
12576SOL     OW39168   6.865   4.114   1.307 -0.7158  0.1950 -0.3114
12576SOL    HW139169   6.879   4.178   1.238 -0.2805  0.9864  0.4896
12576SOL    HW239170   6.841   4.166   1.384 -1.7386 -0.7043  0.0072
12577SOL     OW39171   2.885   2.132   7.304 -0.5492  0.3741 -0.3393
12577SOL    HW139172   2.801   2.161   7.266 -0.6225 -0.3275 -0.7287
12577SOL    HW239173   2.886   2.171   7.392 -1.0320  0.8413 -0.5349
12578SOL     OW39174   2.421   5.182   0.015 -0.1174  0.2167  0.0500
12578SOL    HW139175   2.363   5.189   0.091 -1.4182 -1.7668 -0.6667
12578SOL    HW239176   2.383   5.242  -0.049 -0.8552 -0.3632 -0.0770
12579SOL     OW39177   3.485   7.500   1.777 -0.4252 -0.6352  0.5325
12579SOL    HW139178   3.525   7.469   1.695  0.5766  0.7004  0.4874
12579SOL    HW239179   3.392   7.480   1.766 -0.8884  2.1744 -2.3062
12580SOL     OW39180   4.031   3.800   7.763 -0.5008 -0.2574  0.0688
12580SOL    HW139181   3.983   3.849   7.696  1.7959 -1.6480 -2.8900
12580SOL    HW239182   4.116   3.843   7.768 -0.5077 -0.4014  1.9056
12581SOL     OW39183   1.658   2.630   7.998 -0.1158 -0.4409 -0.0569
12581SOL    HW139184   1.626   2.610   8.086  1.7940  0.2504  0.8492
12581SOL    HW239185   1.713   2.555   7.975  1.3674  0.4654  0.4055
12582SOL     OW39186   6.125   7.075   2.832 -0.4872 -0.6360  0.1625
12582SOL    HW139187   6.067   7.007   2.798  0.8510 -1.9564  0.4735
12582SOL    HW239188   6.213   7.038   2.826  0.3453  1.2656 -0.1550
12583SOL     OW39189   4.546   2.992   3.191 -0.3874 -0.3509  0.2098
12583SOL    HW139190   4.601   3.016   3.116  0.7621  1.4357  1.5479
12583SOL    HW239191   4.514   2.904   3.170 -0.9136  0.4376 -2.8175
12584SOL     OW39192   5.927   5.368   4.926 -0.2416 -0.4649  0.1626
12584SOL    HW139193   5.834   5.384   4.910 -0.0326  0.6446 -0.0655
12584SOL    HW239194   5.969   5.452   4.907  0.6714 -0.5987  1.4516
12585SOL     OW39195   3.192   4.307   0.912  0.0269  0.0575 -0.1591
12585SOL    HW139196   3.194   4.214   0.889 -1.3690 -0.4491  1.5504
12585SOL    HW239197   3.174   4.308   1.006 -0.3904  2.0679 -0.2233
12586SOL     OW39198   6.659   6.539   4.329  0.0214  0.1172  0.0921
12586SOL    HW139199   6.596   6.601   4.364 -0.9943 -1.0991  0.4848
12586SOL    HW239200   6.662   6.557   4.235 -0.8816  0.2187  0.0762
12587SOL     OW39201   2.760   2.513   8.048  0.2938 -0.1729 -0.1458
12587SOL    HW139202   2.682   2.558   8.015  0.9889  0.9323 -0.3180
12587SOL    HW239203   2.725   2.441   8.101 -0.8359 -0.4180 -1.1822
12588SOL     OW39204   0.483   4.434   2.249  0.5451 -0.1532  0.4332
12588SOL    HW139205   0.523   4.351   2.223 -1.0512 -1.2278  1.2030
12588SOL    HW239206   0.449   4.471   2.168  1.2482 -0.2625  0.0850
12589SOL     OW39207   1.466   6.033   9.196  0.4114  0.6409 -0.5794
12589SOL    HW139208   1.541   6.035   9.136  0.6100 -0.3139 -0.3805
12589SOL    HW239209   1.494   5.976   9.268 -0.5171  0.2472 -0.5148
12590SOL     OW39210   7.692   4.543   6.090 -0.3183 -0.3719  0.1020
12590SOL    HW139211   7.769   4.555   6.145 -0.8921  1.7254  0.5340
12590SOL    HW239212   7.702   4.607   6.020 -0.8444 -1.2818 -0.8408
12591SOL     OW39213   2.622   4.153   7.729  0.4354 -0.5130 -0.0816
12591SOL    HW139214   2.527   4.153   7.719  0.6022  0.3397 -1.9510
12591SOL    HW239215   2.641   4.069   7.770 -1.0930 -0.8215  0.0644
12592SOL     OW39216   4.956   4.200  10.669 -0.2223  0.4250 -0.1816
12592SOL    HW139217   5.029   4.261  10.685  1.0399 -1.4656  1.7841
12592SOL    HW239218   4.903   4.205  10.749 -0.4050 -0.6518 -0.2237
12593SOL     OW39219   0.168   5.027   6.171  0.5303 -0.0717 -0.6055
12593SOL    HW139220   0.149   5.119   6.152  0.1204 -0.1679 -0.6564
12593SOL    HW239221   0.247   5.008   6.121  0.3651  0.1263 -0.9411
12594SOL     OW39222   5.212   1.317   9.492 -0.1854 -0.3505 -0.2519
12594SOL    HW139223   5.191   1.317   9.398  0.0257 -0.4989 -0.2999
12594SOL    HW239224   5.153   1.382   9.529 -3.1210 -3.0284  0.1726
12595SOL     OW39225   7.187   0.959   0.999  0.0928 -0.0986  0.4449
12595SOL    HW139226   7.220   0.876   0.965 -1.0058 -0.0676 -0.7860
12595SOL    HW239227   7.177   1.014   0.921  2.1861  1.7450  1.3661
12596SOL     OW39228   2.405   0.798  10.137 -0.2241  0.2834  0.0960
12596SOL    HW139229   2.380   0.819  10.047  0.5757 -0.4211 -0.2999
12596SOL    HW239230   2.386   0.705  10.146 -0.0632  0.2952  0.5733
12597SOL     OW39231   5.339   7.393   2.995  0.0529  0.5522 -0.4425
12597SOL    HW139232   5.308   7.451   2.926  1.2631  1.3219 -0.3797
12597SOL    HW239233   5.264   7.382   3.053 -0.5751  1.0168 -1.1505
12598SOL     OW39234   4.394   1.699  10.252 -0.2396 -0.2294 -0.3301
12598SOL    HW139235   4.304   1.706  10.221 -0.2342  1.8176 -0.0322
12598SOL    HW239236   4.447   1.701  10.173 -0.3427  2.4166 -0.4207
12599SOL     OW39237   6.726   5.622   8.984 -0.5621  0.0838  0.2368
12599SOL    HW139238   6.693   5.648   8.898 -0.1063 -1.3582 -0.3962
12599SOL    HW239239   6.819   5.608   8.971  0.0017  2.2274  1.5632
12600SOL     OW39240   3.365   0.002   6.440  0.4289  0.3910 -0.0387
12600SOL    HW139241   3.344  -0.080   6.394 -0.2039  0.2492  0.4877
12600SOL    HW239242   3.449   0.028   6.404  0.8515 -0.7250  0.1009
12601SOL     OW39243   0.033   2.886   6.300 -0.2624 -0.2898  0.2993
12601SOL    HW139244   0.065   2.796   6.306 -0.8734 -0.4679  1.0700
12601SOL    HW239245   0.000   2.895   6.211  0.1050 -0.7239  0.1184
12602SOL     OW39246   3.385   3.973   1.319 -0.2250 -0.2160 -0.3916
12602SOL    HW139247   3.330   4.024   1.260 -0.4518  1.0261  0.8248
12602SOL    HW239248   3.462   4.028   1.335  0.3345 -0.9810 -0.3463
12603SOL     OW39249   2.409   0.189   1.935 -0.2718  0.8700  0.4159
12603SOL    HW139250   2.365   0.199   1.850  1.2923  2.2597 -0.2795
12603SOL    HW239251   2.338   0.168   1.996 -1.6668  1.4541 -0.9331
12604SOL     OW39252   3.688   4.125   3.711 -0.2744 -0.2842 -0.1607
12604SOL    HW139253   3.645   4.041   3.695  1.1132 -1.0615  0.0543
12604SOL    HW239254   3.782   4.107   3.702  0.0596  1.2215 -0.0174
12605SOL     OW39255   6.506   5.461   5.957 -0.0107  0.2948  0.2224
12605SOL    HW139256   6.428   5.494   6.001 -0.6389 -1.4612  0.5189
12605SOL    HW239257   6.565   5.438   6.028  0.1571  0.1787  0.0467
12606SOL     OW39258   4.372   6.566  11.566  0.0607  0.0803  0.0273
12606SOL    HW139259   4.309   6.615  11.514 -0.2041  0.9909  1.1591
12606SOL    HW239260   4.457   6.604  11.543  0.0224 -0.0154 -0.2725
12607SOL     OW39261   1.294   2.910   7.665  0.3075 -0.1145 -0.2379
12607SOL    HW139262   1.257   2.969   7.730 -3.5053 -1.5577 -0.8491
12607SOL    HW239263   1.311   2.966   7.589 -2.6037  0.4660 -0.5866
12608SOL     OW39264   3.356   5.941   3.604  0.5606  0.4439  0.2547
12608SOL    HW139265   3.449   5.932   3.627  0.1831 -1.9676  1.1925
12608SOL    HW239266   3.311   5.947   3.688 -0.3731 -2.5675  0.1093
12609SOL     OW39267   0.414   2.885   0.285 -0.0616  0.1078  0.5928
12609SOL    HW139268   0.484   2.899   0.221 -0.5651  2.4562  0.4768
12609SOL    HW239269   0.457   2.896   0.370 -0.3604  2.3015  0.5110
12610SOL     OW39270   0.088   6.610   2.466 -1.1707 -0.0941 -0.3004
12610SOL    HW139271   0.050   6.523   2.465  2.2749 -1.8316 -2.6415
12610SOL    HW239272   0.177   6.597   2.500  0.0627  2.0666 -2.3026
12611SOL     OW39273   0.523   4.425   6.094 -0.1228 -0.5754 -0.3685
12611SOL    HW139274   0.455   4.390   6.151 -1.1134 -0.4252 -1.4148
12611SOL    HW239275   0.591   4.357   6.092 -1.0432 -1.5079 -0.6852
12612SOL     OW39276   7.580   3.129   7.863  0.0393 -0.4196 -0.4299
12612SOL    HW139277   7.625   3.060   7.814 -2.4646 -1.9784 -0.7491
12612SOL    HW239278   7.505   3.084   7.904 -0.7025  1.7945  0.8274
12613SOL     OW39279   6.563   1.272   2.526  0.7499 -0.1272  0.4705
12613SOL    HW139280   6.490   1.217   2.551  0.2562 -0.0999 -0.8637
12613SOL    HW239281   6.548   1.355   2.572  0.2438 -0.3034  0.6222
12614SOL     OW39282   0.148   7.026  12.322  0.1677 -0.6177 -0.2173
12614SOL    HW139283   0.150   7.121  12.333 -1.8851 -0.5570  0.1687
12614SOL    HW239284   0.237   6.997  12.340  0.8831  1.2505 -0.5541
12615SOL     OW39285   2.561   5.681  12.090 -0.1422  0.2685  0.3127
12615SOL    HW139286   2.468   5.694  12.071 -0.2749 -0.4620  0.4341
12615SOL    HW239287   2.562   5.621  12.164  0.4383 -0.3599 -0.1999
12616SOL     OW39288   1.243   2.827   5.673 -0.1275  0.5776 -0.5523
12616SOL    HW139289   1.322   2.834   5.726 -0.3656  0.7295 -0.2150
12616SOL    HW239290   1.202   2.745   5.701  0.0641  0.3482 -0.9391
12617SOL     OW39291   4.877   5.795   0.624  0.7872  0.0673  0.3338
12617SOL    HW139292   4.827   5.832   0.552 -0.5399  0.8658  1.6234
12617SOL    HW239293   4.967   5.820   0.606  0.0816  3.2282  0.6772
12618SOL     OW39294   6.475   2.245   1.128 -0.2665 -0.3599  0.2729
12618SOL    HW139295   6.514   2.297   1.057 -1.0343  1.7325  1.2810
12618SOL    HW239296   6.435   2.171   1.084  0.5329  0.1019 -1.3154
12619SOL     OW39297   0.634   4.827  10.608  0.0291 -0.5780  0.4194
12619SOL    HW139298   0.565   4.765  10.628  0.1079 -0.9198 -0.3256
12619SOL    HW239299   0.626   4.842  10.513  2.0481 -1.9567 -0.0394
12620SOL     OW39300   3.499   5.263   2.179  0.2153  0.1137 -0.5575
12620SOL    HW139301   3.420   5.216   2.153  0.2028 -0.2830  0.1694
12620SOL    HW239302   3.474   5.355   2.178 -0.2707 -0.0140 -0.2730
12621SOL     OW39303   3.573   0.093   6.287  0.5137  0.0525  0.0816
12621SOL    HW139304   3.592   0.008   6.247  1.6366 -0.4180  1.5237
12621SOL    HW239305   3.562   0.153   6.213  0.7228 -1.1283 -0.9374
12622SOL     OW39306   1.810   6.389  12.165  0.0375 -0.2085  0.2628
12622SOL    HW139307   1.814   6.401  12.071 -0.4469 -0.1688  0.2429
12622SOL    HW239308   1.885   6.437  12.199  0.6952 -0.9174 -0.1598
12623SOL     OW39309   4.122   6.124  10.338 -0.0530  0.2559 -0.4654
12623SOL    HW139310   4.058   6.188  10.306 -0.4481  0.0757 -0.0438
12623SOL    HW239311   4.206   6.170  10.331 -0.3378  0.8501 -0.1144
12624SOL     OW39312   7.069   1.707  11.912  0.1976 -0.1451  0.5524
12624SOL    HW139313   7.049   1.800  11.897 -1.4931 -0.1886  2.0856
12624SOL    HW239314   7.100   1.675  11.828  3.8633  2.4755  0.6775
12625SOL     OW39315   5.123   0.787   8.623  0.0735 -0.5328 -0.1334
12625SOL    HW139316   5.078   0.705   8.602 -0.9863 -0.0380  0.1467
12625SOL    HW239317   5.195   0.791   8.560 -0.6021 -1.0683 -0.9684
12626SOL     OW39318   3.416   7.135   3.172  0.2031  0.3209  0.3459
12626SOL    HW139319   3.438   7.065   3.234 -0.7630  0.5439  0.9636
12626SOL    HW239320   3.446   7.103   3.088 -2.3430 -1.9525  0.1780
12627SOL     OW39321   3.204   5.347   9.429  0.8167 -0.2939  0.8112
12627SOL    HW139322   3.249   5.269   9.461  0.0605 -0.4664  1.4861
12627SOL    HW239323   3.144   5.371   9.500  0.5601  0.5090  0.3374
12628SOL     OW39324   1.749   6.050  10.671 -0.1110 -0.8970 -0.5250
12628SOL    HW139325   1.826   6.065  10.726 -0.6206  1.8436 -0.4217
12628SOL    HW239326   1.785   6.036  10.584  0.5348  0.0995 -0.4333
12629SOL     OW39327   4.431   2.500   8.391  0.1991 -0.3475 -0.4410
12629SOL    HW139328   4.385   2.582   8.408 -0.9228 -0.9378 -0.5441
12629SOL    HW239329   4.510   2.525   8.343  1.1054  0.9116  1.5744
12630SOL     OW39330   4.987   5.506  11.110  0.4105 -0.4934  0.1859
12630SOL    HW139331   5.013   5.431  11.164  1.6217 -1.2851 -1.4023
12630SOL    HW239332   4.930   5.468  11.043 -0.6886  0.3904  0.5989
12631SOL     OW39333   0.910   2.226   7.840 -0.0931 -0.4137  0.6621
12631SOL    HW139334   0.910   2.281   7.918 -0.2032  1.0534 -0.3135
12631SOL    HW239335   0.995   2.181   7.842  0.1424  0.0429  1.3274
12632SOL     OW39336   2.348   3.596   9.256 -0.4905  0.2515 -0.1180
12632SOL    HW139337   2.360   3.586   9.162 -1.3806  1.6545 -0.4054
12632SOL    HW239338   2.355   3.690   9.272 -0.8900  0.0923  1.1319
12633SOL     OW39339   2.337   0.332   9.563 -0.1158 -0.3332  0.1219
12633SOL    HW139340   2.388   0.344   9.642  0.2317  3.2532 -0.4862
12633SOL    HW239341   2.253   0.375   9.581 -0.6820 -0.9627 -0.8885
12634SOL     OW39342   1.969   0.413   5.192 -0.4051 -0.0225  0.1273
12634SOL    HW139343   1.906   0.405   5.263 -1.1599  1.5582 -0.3229
12634SOL    HW239344   1.919   0.450   5.119  0.8088  0.3529 -0.5520
12635SOL     OW39345   6.554   7.791  10.506 -0.4931 -0.0822 -0.3608
12635SOL    HW139346   6.528   7.833  10.424  0.6045  0.4334 -0.4753
12635SOL    HW239347   6.643   7.824  10.522 -0.1598 -1.2395  0.3201
12636SOL     OW39348   6.770   5.044   2.547 -0.0544  0.1228  0.0815
12636SOL    HW139349   6.768   4.982   2.620  2.1285  0.0021  0.0911
12636SOL    HW239350   6.695   5.101   2.563 -1.1491 -1.4848  0.9708
12637SOL     OW39351   5.665   3.056   7.094 -0.3037  0.1661  0.7653
12637SOL    HW139352   5.625   3.136   7.126 -0.7848 -0.4625  1.7984
12637SOL    HW239353   5.637   2.989   7.157  0.4402 -0.7230  0.1688
12638SOL     OW39354   4.072   4.305   6.620  0.4474  0.3287 -0.2844
12638SOL    HW139355   4.072   4.400   6.637  2.2442  0.6319 -1.6564
12638SOL    HW239356   4.084   4.298   6.525  1.1701 -1.2721 -0.0938
12639SOL     OW39357   1.411   5.211   0.086 -0.7641 -0.1687 -0.2488
12639SOL    HW139358   1.487   5.255   0.048 -1.8759  0.0446 -2.3898
12639SOL    HW239359   1.343   5.279   0.087 -1.5237 -0.9184 -0.3216
12640SOL     OW39360   0.407   7.775   8.473 -0.5068  0.3316 -0.0332
12640SOL    HW139361   0.431   7.867   8.462 -0.3709  0.6780  2.4083
12640SOL    HW239362   0.446   7.751   8.558 -0.0124 -2.1689 -0.8910
12641SOL     OW39363   2.032   0.274  11.191  0.0218  0.3705  0.0596
12641SOL    HW139364   2.064   0.244  11.106  2.2522 -0.4918  1.1284
12641SOL    HW239365   2.085   0.350  11.212 -2.1916  2.1457 -0.3422
12642SOL     OW39366   0.184   3.339   1.077 -0.4241  0.6064  0.2157
12642SOL    HW139367   0.134   3.421   1.078 -1.6590 -0.1120 -0.3583
12642SOL    HW239368   0.118   3.270   1.074  0.5709 -0.4630  1.4539
12643SOL     OW39369   1.735   4.966   0.811  0.7899  0.2588 -0.8123
12643SOL    HW139370   1.640   4.968   0.822  0.6777  1.3934 -1.7716
12643SOL    HW239371   1.749   4.991   0.720  2.0239  0.1667 -0.6689
12644SOL     OW39372   0.250   1.034   0.034 -0.3679  0.2024 -1.0463
12644SOL    HW139373   0.187   1.079  -0.022 -1.2596  2.5513  1.6329
12644SOL    HW239374   0.327   1.090   0.033 -0.3155  0.1589 -0.1352
12645SOL     OW39375   7.198   3.367   9.737  0.7917 -0.3126  0.1139
12645SOL    HW139376   7.111   3.346   9.704  0.8127  0.4606 -0.4616
12645SOL    HW239377   7.249   3.287   9.723  0.1514 -0.8129  0.5725
12646SOL     OW39378   6.216   1.691  11.376 -0.3539  0.1169 -0.0010
12646SOL    HW139379   6.280   1.639  11.327  0.0682  0.7110 -0.0912
12646SOL    HW239380   6.229   1.665  11.467 -0.6612 -0.4785 -0.1219
12647SOL     OW39381   0.429   5.115   8.930 -0.2973 -0.1618 -0.4293
12647SOL    HW139382   0.468   5.164   9.002  1.3375 -0.9724 -0.7400
12647SOL    HW239383   0.383   5.182   8.878  0.8280  0.8482 -0.1517
12648SOL     OW39384   2.563   7.509  11.918  0.5536 -0.2790 -0.5733
12648SOL    HW139385   2.515   7.450  11.859 -1.2276  0.2959  0.2217
12648SOL    HW239386   2.540   7.597  11.887 -0.7144  0.0474  1.1095
12649SOL     OW39387   0.783   3.309   6.291 -0.2045 -0.6069  0.7052
12649SOL    HW139388   0.770   3.242   6.358  0.6625  0.9192  2.4727
12649SOL    HW239389   0.743   3.388   6.328 -0.3367  0.1124 -0.9026
12650SOL     OW39390   1.861   5.019   8.469  0.2465  0.1689  0.2551
12650SOL    HW139391   1.915   4.964   8.527  0.5314 -0.1663 -0.3188
12650SOL    HW239392   1.773   5.015   8.507  0.1509 -1.0905 -0.0359
12651SOL     OW39393   6.397   3.452   7.256  0.2590 -0.4063  0.7678
12651SOL    HW139394   6.368   3.364   7.234 -1.1478  0.4943 -1.2434
12651SOL    HW239395   6.475   3.466   7.203 -0.9699  0.4081 -0.9144
12652SOL     OW39396   3.288   6.479   7.113 -0.1915  0.1623  0.1287
12652SOL    HW139397   3.218   6.495   7.175 -0.4983 -0.6038  0.0023
12652SOL    HW239398   3.243   6.466   7.029  0.0638 -0.5984  0.0966
12653SOL     OW39399   2.362   3.426  11.046  0.0902  0.2644  0.4149
12653SOL    HW139400   2.324   3.339  11.053 -0.2131  0.2917 -0.6703
12653SOL    HW239401   2.411   3.438  11.127  1.2879 -1.4719  0.0112
12654SOL     OW39402   3.008   6.987   4.367  0.5257  0.6573  0.3435
12654SOL    HW139403   3.004   6.914   4.306 -2.6016  0.7473  0.2857
12654SOL    HW239404   2.952   7.054   4.328 -0.1888  1.3793  2.4573
12655SOL     OW39405   6.120   4.936   0.137  0.4449 -0.0210 -0.7244
12655SOL    HW139406   6.211   4.915   0.114 -0.1084 -0.1371 -2.9831
12655SOL    HW239407   6.070   4.861   0.105 -0.2106 -1.7189  3.6488
12656SOL     OW39408   4.059   7.373   0.676 -0.3552 -0.4589  0.1455
12656SOL    HW139409   3.997   7.305   0.701 -1.6140  0.9535  0.9956
12656SOL    HW239410   4.043   7.388   0.583  0.1315 -1.4931 -0.1202
12657SOL     OW39411   0.224   5.892   3.900  0.3805 -0.2189 -0.3099
12657SOL    HW139412   0.286   5.904   3.828  1.6397 -0.9763  0.5953
12657SOL    HW239413   0.250   5.808   3.940 -1.6504 -0.8715 -0.2873
12658SOL     OW39414   3.427   3.898   0.461 -0.0464  0.0697 -0.4258
12658SOL    HW139415   3.441   3.879   0.554  0.2987  0.3131 -0.4237
12658SOL    HW239416   3.378   3.980   0.460 -3.2212 -1.6769 -0.3932
12659SOL     OW39417   2.758   4.776   2.948  0.2457  0.4861  0.0112
12659SOL    HW139418   2.710   4.840   3.000 -2.5640 -2.2742  1.1433
12659SOL    HW239419   2.725   4.787   2.859  0.9599  1.5733 -0.1386
12660SOL     OW39420   1.619   3.435   8.951  0.3764  0.4163  1.0273
12660SOL    HW139421   1.588   3.485   9.027 -0.6579  2.7679 -0.8286
12660SOL    HW239422   1.544   3.434   8.891  1.1236 -1.5223  0.0368
12661SOL     OW39423   6.482   0.974  10.734 -0.7085  0.0289  0.1640
12661SOL    HW139424   6.550   0.906  10.741 -0.6287  0.2075  1.3255
12661SOL    HW239425   6.400   0.927  10.748 -0.8884 -0.2370 -1.5221
12662SOL     OW39426   5.200   1.154   2.676 -0.5276  0.0948  0.5990
12662SOL    HW139427   5.108   1.150   2.648 -0.1598 -0.2853 -0.6400
12662SOL    HW239428   5.222   1.247   2.672  0.1688 -0.0511 -2.8882
12663SOL     OW39429   3.693   0.511   6.648 -0.1813  0.0731  1.2169
12663SOL    HW139430   3.664   0.601   6.664 -0.7635 -0.0782  1.0355
12663SOL    HW239431   3.684   0.500   6.553  0.8256  0.1372  1.0992
12664SOL     OW39432   6.683   1.863   9.590  0.3565 -0.2328  0.4281
12664SOL    HW139433   6.682   1.903   9.503 -1.0196 -1.2245 -0.0608
12664SOL    HW239434   6.749   1.794   9.583 -0.3926 -0.9178 -0.1580
12665SOL     OW39435   4.454   3.643   1.303  0.2528 -0.0890  0.2085
12665SOL    HW139436   4.411   3.684   1.378  0.3041 -2.8507  1.8782
12665SOL    HW239437   4.476   3.555   1.332  0.4657 -1.2605 -3.0133
12666SOL     OW39438   7.401   5.115   3.548  0.0271 -0.2344 -0.0131
12666SOL    HW139439   7.374   5.083   3.462  2.8179 -0.9160 -0.7360
12666SOL    HW239440   7.410   5.209   3.538  0.7980 -0.3636 -0.6479
12667SOL     OW39441   2.744   6.675  11.438  0.2681  0.0842  0.6926
12667SOL    HW139442   2.792   6.695  11.518 -0.3093 -0.9904  1.3241
12667SOL    HW239443   2.676   6.613  11.465 -0.3328  0.1831 -0.5120
12668SOL     OW39444   6.878   2.998   7.146  0.2687 -0.2034  0.4112
12668SOL    HW139445   6.957   2.978   7.196  1.2471 -0.7832 -1.2743
12668SOL    HW239446   6.851   2.914   7.109 -0.5086  0.1854  0.0603
12669SOL     OW39447   1.947   4.199   7.992 -0.2878 -0.2312  0.2355
12669SOL    HW139448   1.964   4.282   8.037  0.6847 -0.0053 -0.4951
12669SOL    HW239449   1.915   4.226   7.905  3.7271 -0.3951 -1.5337
12670SOL     OW39450   3.461   7.772   1.832  0.5270  0.2349 -0.2625
12670SOL    HW139451   3.368   7.779   1.810  0.6037 -0.1789 -0.7262
12670SOL    HW239452   3.483   7.681   1.816  1.8316  0.9962 -3.5285
12671SOL     OW39453   2.276   7.078   4.467 -0.1974 -0.0164 -0.5529
12671SOL    HW139454   2.227   7.008   4.422  0.8161  0.1305 -1.9472
12671SOL    HW239455   2.363   7.041   4.481 -0.1319  0.4029  0.1753
12672SOL     OW39456   0.392   7.114   5.787 -0.3175  0.3768  0.4205
12672SOL    HW139457   0.355   7.026   5.796 -1.0226  0.7987  2.0197
12672SOL    HW239458   0.440   7.112   5.704  1.5603 -2.1839  1.4614
12673SOL     OW39459   3.654   2.778  10.754  0.1533  0.4441  0.4508
12673SOL    HW139460   3.625   2.849  10.697 -0.7107  0.1762  0.5450
12673SOL    HW239461   3.635   2.808  10.842 -1.6705 -0.4890  0.4394
12674SOL     OW39462   5.601   5.886  10.196 -0.1949 -0.6677  0.4180
12674SOL    HW139463   5.646   5.914  10.116 -1.1157  0.9668  0.4345
12674SOL    HW239464   5.527   5.834  10.165  0.0826 -0.9804  0.2698
12675SOL     OW39465   7.007   0.778   0.474  0.5102 -0.6030 -0.9429
12675SOL    HW139466   6.951   0.854   0.461 -0.3575 -1.3738 -1.8012
12675SOL    HW239467   6.957   0.720   0.531  1.1434 -0.5670 -0.3345
12676SOL     OW39468   0.763   0.037  10.640 -0.5248  0.2943  0.2650
12676SOL    HW139469   0.692   0.101  10.647 -1.2894 -0.5052  0.0117
12676SOL    HW239470   0.843   0.090  10.633 -1.2720  1.2723 -1.5771
12677SOL     OW39471   7.571   5.889   7.732 -0.2605 -0.4184 -0.1348
12677SOL    HW139472   7.534   5.976   7.723  1.1396  0.7839  3.6256
12677SOL    HW239473   7.666   5.903   7.732  0.1119 -2.3734 -2.0920
12678SOL     OW39474   7.700   3.952   0.513  0.2137 -0.1991  0.6260
12678SOL    HW139475   7.637   3.931   0.582 -0.5530  0.4921  0.1509
12678SOL    HW239476   7.777   3.985   0.561 -0.5293  0.8500  1.1535
12679SOL     OW39477   7.333   3.545   5.448 -0.5531  0.1802 -0.0910
12679SOL    HW139478   7.242   3.527   5.427 -0.5363  1.6354 -1.6670
12679SOL    HW239479   7.377   3.546   5.363  0.9370 -0.4589  0.6366
12680SOL     OW39480   4.942   7.791   6.730  0.6259  0.0746 -0.2510
12680SOL    HW139481   4.916   7.761   6.817  2.4722 -2.4611 -0.4620
12680SOL    HW239482   4.861   7.792   6.680 -0.2913  0.5398  1.1838
12681SOL     OW39483   5.526   4.377   2.557  0.1997 -0.0191  0.1984
12681SOL    HW139484   5.609   4.399   2.599 -0.3920  0.8239  0.9614
12681SOL    HW239485   5.518   4.439   2.485  0.3002 -0.2021  0.0287
12682SOL     OW39486   3.079   2.745   4.998 -0.5801 -0.0601 -0.2033
12682SOL    HW139487   3.010   2.810   4.982 -1.3024 -0.5945  0.6890
12682SOL    HW239488   3.071   2.724   5.091 -0.4828 -1.5724 -0.5165
12683SOL     OW39489   4.768   2.579   9.104 -0.3824  0.1240  0.0541
12683SOL    HW139490   4.714   2.503   9.126  1.2124 -0.8550  0.7777
12683SOL    HW239491   4.779   2.625   9.186 -0.4461  0.5545 -0.1756
12684SOL     OW39492   1.634   4.755   2.040 -0.0680  0.3203 -0.3629
12684SOL    HW139493   1.544   4.730   2.061 -0.9445 -1.2241 -4.8630
12684SOL    HW239494   1.685   4.676   2.057  0.1794  0.6788  0.6217
12685SOL     OW39495   7.571   4.923  11.478 -0.1435  0.2836  0.0918
12685SOL    HW139496   7.559   4.829  11.494 -1.1532  0.6243  1.5071
12685SOL    HW239497   7.535   4.937  11.390 -0.7637 -0.5069  0.2084
12686SOL     OW39498   6.870   5.747   6.711  0.8044 -0.6087 -0.6311
12686SOL    HW139499   6.900   5.656   6.705 -1.7827 -1.4536 -2.0916
12686SOL    HW239500   6.878   5.781   6.622 -4.4844 -1.7005 -1.8378
12687SOL     OW39501   0.486   6.294   7.489  0.0640 -0.0005  0.0210
12687SOL    HW139502   0.434   6.214   7.492 -0.4609  0.3524  0.8412
12687SOL    HW239503   0.550   6.285   7.560  1.0256 -0.3541 -0.8719
12688SOL     OW39504   5.462   0.468   1.836  0.3284  0.0816 -0.1510
12688SOL    HW139505   5.517   0.439   1.763  0.5081 -2.0031  0.7417
12688SOL    HW239506   5.374   0.436   1.814 -0.1283  1.5346 -0.5527
12689SOL     OW39507   7.189   5.443   7.986  0.2405  0.7433 -0.1326
12689SOL    HW139508   7.190   5.409   8.076 -0.0392  1.3694  0.1172
12689SOL    HW239509   7.133   5.521   7.991  0.8126  1.1959 -0.7012
12690SOL     OW39510   3.049   7.284   7.277 -0.0907 -0.0375  0.5899
12690SOL    HW139511   3.080   7.232   7.351 -0.7615  0.3244  1.1377
12690SOL    HW239512   3.084   7.239   7.200  0.9728 -0.1795  1.1409
12691SOL     OW39513   1.900   2.493   2.546  0.2121 -0.0597 -0.3219
12691SOL    HW139514   1.932   2.406   2.568 -1.1811 -0.5329 -0.0483
12691SOL    HW239515   1.952   2.519   2.470  0.3058 -1.3568 -0.7297
12692SOL     OW39516   6.963   0.115   3.073 -0.4682 -0.0015 -0.1848
12692SOL    HW139517   6.954   0.109   2.978 -0.9196  2.4509 -0.3646
12692SOL    HW239518   7.014   0.195   3.087  0.3282 -0.7665  1.6332
12693SOL     OW39519   5.217   1.190  12.081  0.6202  0.0378 -0.1042
12693SOL    HW139520   5.302   1.231  12.093  0.5157  0.2726 -0.1625
12693SOL    HW239521   5.237   1.101  12.051  0.9056 -0.8770  2.5867
12694SOL     OW39522   7.385   0.241   7.920 -0.2347  0.4084  0.0479
12694SOL    HW139523   7.332   0.175   7.965  0.2379  0.7136  1.0889
12694SOL    HW239524   7.400   0.308   7.987  1.4934  0.3134 -0.2038
12695SOL     OW39525   2.837   3.587   1.479 -0.0952 -0.3615  0.4866
12695SOL    HW139526   2.754   3.544   1.499 -1.3912  0.6510 -2.2350
12695SOL    HW239527   2.888   3.521   1.433 -0.1308 -0.4500  0.5750
12696SOL     OW39528   3.940   5.286   8.464  0.3148  0.3629 -0.1864
12696SOL    HW139529   3.963   5.329   8.547  1.2137 -1.8508  0.7992
12696SOL    HW239530   3.961   5.194   8.479  0.5757 -0.0898 -2.9345
12697SOL     OW39531   5.204   6.538   7.003 -0.2816  0.2395  0.0585
12697SOL    HW139532   5.246   6.505   6.924 -2.3184 -1.6859 -0.3206
12697SOL    HW239533   5.266   6.517   7.073 -0.2329 -1.8510 -0.5483
12698SOL     OW39534   4.547   5.393   0.936  0.1030  0.1329  0.3225
12698SOL    HW139535   4.468   5.339   0.940 -0.4459  0.9534  0.7241
12698SOL    HW239536   4.538   5.443   0.855  1.3571 -1.4578 -0.8797
12699SOL     OW39537   7.775   7.921   2.610 -0.9125 -0.5293  0.2102
12699SOL    HW139538   7.831   7.985   2.655 -0.1856 -1.3297  0.4784
12699SOL    HW239539   7.786   7.940   2.517 -0.9395 -0.0688  0.3005
12700SOL     OW39540   5.990   3.633   6.439  0.6386  0.4456  0.6529
12700SOL    HW139541   5.985   3.650   6.345  0.5162 -0.5566  0.4693
12700SOL    HW239542   5.948   3.709   6.479  0.3755  0.7145 -0.1126
12701SOL     OW39543   1.611   5.404  10.546  0.0540 -0.3234 -0.0937
12701SOL    HW139544   1.674   5.448  10.604  0.0953 -1.7191  0.9767
12701SOL    HW239545   1.556   5.353  10.605 -0.1485 -1.5087 -1.2721
12702SOL     OW39546   0.444   3.756   0.715  0.2897  0.0017  0.4824
12702SOL    HW139547   0.455   3.837   0.765  0.2324  0.6204 -0.4942
12702SOL    HW239548   0.515   3.756   0.651 -0.7365  0.1709 -0.6915
12703SOL     OW39549   4.606   0.195  11.358  0.1550 -0.2904  0.6524
12703SOL    HW139550   4.546   0.254  11.312  2.6726  2.1496  0.2075
12703SOL    HW239551   4.641   0.138  11.290  1.4209  1.1144  0.0843
12704SOL     OW39552   1.006   6.726   7.338  0.1198 -0.1649 -0.1269
12704SOL    HW139553   1.060   6.763   7.267 -0.7372 -0.5013 -0.9823
12704SOL    HW239554   1.069   6.695   7.402  0.9411 -0.2465 -0.9520
12705SOL     OW39555   3.970   4.200   6.080  0.2948 -0.0914 -0.1243
12705SOL    HW139556   4.051   4.151   6.065  0.3024 -0.6249  1.5212
12705SOL    HW239557   3.923   4.149   6.145 -1.1775  0.4589 -0.7126
12706SOL     OW39558   7.603   7.364   0.578 -0.1664 -0.4096  0.7176
12706SOL    HW139559   7.647   7.332   0.657  1.2132  1.0827  0.6058
12706SOL    HW239560   7.642   7.314   0.507 -0.7451 -1.1100  0.8881
12707SOL     OW39561   3.958   2.683   2.342 -0.6142 -0.3780  0.2954
12707SOL    HW139562   4.029   2.623   2.364 -0.1586  0.0116 -0.0868
12707SOL    HW239563   3.926   2.715   2.426  0.4221  0.3162  0.4366
12708SOL     OW39564   3.900   2.687   5.666  0.1466 -0.1088  0.1863
12708SOL    HW139565   3.823   2.743   5.664  0.8481  0.9274  0.8979
12708SOL    HW239566   3.941   2.700   5.581 -2.3228 -3.5007 -1.7419
12709SOL     OW39567   3.562   1.747   0.030 -0.1367 -0.1398  0.2302
12709SOL    HW139568   3.509   1.764  -0.049 -0.0883  3.7503  0.8716
12709SOL    HW239569   3.625   1.819   0.033  1.0397 -1.1647  2.8976
12710SOL     OW39570   3.223   2.764   7.509  0.2289 -0.5950  0.1252
12710SOL    HW139571   3.218   2.669   7.500  1.9990 -0.5485 -2.2012
12710SOL    HW239572   3.218   2.798   7.420 -0.1333  1.5142  0.8738
12711SOL     OW39573   7.673   3.869   5.204  0.7507 -0.1655 -0.3663
12711SOL    HW139574   7.699   3.813   5.132 -1.5953 -1.0435 -0.6068
12711SOL    HW239575   7.601   3.823   5.247  0.8983  1.1547  1.4534
12712SOL     OW39576   1.487   5.616  11.993 -0.2517 -0.5470  0.1766
12712SOL    HW139577   1.512   5.581  11.907  0.3747  1.6327 -0.5992
12712SOL    HW239578   1.446   5.542  12.038 -0.5630 -1.7732 -1.9748
12713SOL     OW39579   0.429   7.690   1.609  0.0547  0.4465  0.2710
12713SOL    HW139580   0.516   7.688   1.649 -0.3065  2.0004  1.2160
12713SOL    HW239581   0.446   7.701   1.515  0.8714 -0.5321  0.2845
12714SOL     OW39582   4.213   1.203   9.083  0.0611  0.1069 -0.1214
12714SOL    HW139583   4.258   1.171   9.162 -2.0983  0.0948  1.1839
12714SOL    HW239584   4.132   1.152   9.080 -1.1898  2.0484 -0.7565
12715SOL     OW39585   3.214   5.037   8.162 -0.4129 -0.1178  0.3166
12715SOL    HW139586   3.165   4.960   8.132  0.4715 -0.3988 -0.4411
12715SOL    HW239587   3.304   5.021   8.135 -0.3669  1.6256 -0.7571
12716SOL     OW39588   0.396   6.343   0.894 -0.7150  0.4100  0.3589
12716SOL    HW139589   0.481   6.313   0.927 -0.9218 -0.5979  0.0363
12716SOL    HW239590   0.352   6.380   0.970 -0.3517  0.0742  0.7412
12717SOL     OW39591   7.902   6.384   2.505 -0.2544 -0.0395 -0.1535
12717SOL    HW139592   7.825   6.335   2.533  1.3343 -3.0874 -0.6779
12717SOL    HW239593   7.929   6.342   2.424  1.7635  1.1761 -0.1822
12718SOL     OW39594   6.085   0.237  10.700 -0.6184 -0.8279  0.7429
12718SOL    HW139595   6.170   0.273  10.724 -0.2035 -1.8769  0.8670
12718SOL    HW239596   6.026   0.313  10.702  0.5149  0.1268 -0.4463
12719SOL     OW39597   5.989   0.597   3.116 -0.3877  0.4737  0.1678
12719SOL    HW139598   5.991   0.690   3.141  2.3706  0.4532  0.3605
12719SOL    HW239599   5.896   0.574   3.116 -1.0940  2.9895  1.0159
12720SOL     OW39600   0.262   7.713   6.470 -0.0203  0.0535 -0.6269
12720SOL    HW139601   0.325   7.643   6.484  0.8765  1.2328  1.8575
12720SOL    HW239602   0.315   7.793   6.463 -1.1299  1.0863  1.6052
12721SOL     OW39603   0.298   6.301   4.365 -0.1155 -0.1231 -0.1341
12721SOL    HW139604   0.391   6.278   4.372 -0.2029 -0.2253  0.9687
12721SOL    HW239605   0.261   6.233   4.308  0.8399  1.0860 -2.3130
12722SOL     OW39606   1.938   7.767   1.460  0.2561  0.2419 -0.2374
12722SOL    HW139607   1.985   7.843   1.493 -0.4209  0.8260 -0.6027
12722SOL    HW239608   1.885   7.737   1.534  1.3598 -0.5775  0.2589
12723SOL     OW39609   4.554   0.116   8.671 -0.2054 -0.5296  0.4015
12723SOL    HW139610   4.510   0.088   8.752  1.6920 -0.3115  1.5550
12723SOL    HW239611   4.573   0.209   8.685  0.8286 -0.6793  0.0251
12724SOL     OW39612   6.666   1.539   4.581 -0.2509  0.1400 -0.3659
12724SOL    HW139613   6.662   1.451   4.543 -2.7773 -0.9946  2.1433
12724SOL    HW239614   6.713   1.527   4.664  2.5824  1.9882 -1.5212
12725SOL     OW39615   3.776   1.842   4.021  0.1492 -0.1030 -0.0389
12725SOL    HW139616   3.843   1.853   4.088 -1.1970  0.3023  1.3114
12725SOL    HW239617   3.767   1.928   3.981  0.6164 -0.2264 -0.4151
12726SOL     OW39618   0.671   1.798   3.373  0.2639  0.0064  0.2502
12726SOL    HW139619   0.615   1.853   3.427 -0.6244 -0.3114 -0.3382
12726SOL    HW239620   0.733   1.759   3.435 -0.2140  0.2946  0.9173
12727SOL     OW39621   4.384   6.438   6.473  0.6112 -0.1026 -0.4758
12727SOL    HW139622   4.420   6.481   6.550  0.7682 -1.1083  0.0346
12727SOL    HW239623   4.402   6.345   6.487 -2.1291 -0.6973 -0.1904
12728SOL     OW39624   4.549   0.266  10.294 -0.1816  0.2568 -0.2337
12728SOL    HW139625   4.609   0.337  10.318  0.0431 -0.0042 -0.0179
12728SOL    HW239626   4.495   0.253  10.372  0.3696 -0.4096  0.0435
12729SOL     OW39627   6.506   7.032   0.072  0.1108  0.4750  0.1479
12729SOL    HW139628   6.442   7.003   0.007  0.8016 -2.1013  0.5202
12729SOL    HW239629   6.575   7.073   0.020  0.3764 -1.0178 -0.7319
12730SOL     OW39630   2.715   6.618   2.183 -0.8105  0.0231  0.0512
12730SOL    HW139631   2.787   6.632   2.244 -1.9805 -1.0009  1.7275
12730SOL    HW239632   2.742   6.542   2.131 -0.2799  0.2403  0.0008
12731SOL     OW39633   3.852   3.144   7.616  0.0808  0.0205  0.3356
12731SOL    HW139634   3.776   3.201   7.603  0.4603  0.1070 -2.0065
12731SOL    HW239635   3.927   3.197   7.587  1.0352 -0.1992  2.2323
12732SOL     OW39636   5.458   2.034  11.498  0.2713 -0.1882 -0.0235
12732SOL    HW139637   5.522   1.991  11.441  0.2071  0.9911 -1.0564
12732SOL    HW239638   5.499   2.119  11.519 -0.9341  0.6036 -0.7439
12733SOL     OW39639   3.828   4.066   3.005 -0.1773 -0.0906 -0.0455
12733SOL    HW139640   3.817   3.971   3.008 -0.5781 -0.0129  1.1858
12733SOL    HW239641   3.923   4.079   3.014 -0.1647 -0.3513  0.2183
12734SOL     OW39642   7.576   6.889  10.767 -0.6814  0.8718 -0.0334
12734SOL    HW139643   7.589   6.860  10.677 -2.1929  0.0551 -0.0228
12734SOL    HW239644   7.481   6.885  10.780 -0.3965 -0.8062  2.1554
12735SOL     OW39645   4.012   2.322   8.858  0.9879 -0.9734  0.2761
12735SOL    HW139646   3.976   2.378   8.926 -0.8184 -0.2404 -1.2045
12735SOL    HW239647   4.106   2.325   8.873  1.3211  4.1779 -0.8800
12736SOL     OW39648   2.992   5.854   4.681 -0.0076  0.0562 -0.1965
12736SOL    HW139649   2.989   5.853   4.585  0.3517  0.1046 -0.2093
12736SOL    HW239650   3.081   5.881   4.702 -0.5463  1.6382  0.1589
12737SOL     OW39651   5.013   2.117   3.039  0.3408 -0.4302 -0.4238
12737SOL    HW139652   5.008   2.210   3.018  1.1989 -0.2089  0.2827
12737SOL    HW239653   4.940   2.078   2.991 -0.2144  0.6468 -0.4974
12738SOL     OW39654   2.286   6.222   7.171 -0.4631  0.7171 -0.3180
12738SOL    HW139655   2.296   6.282   7.245 -1.1647 -0.5345  0.8364
12738SOL    HW239656   2.195   6.191   7.177 -0.6121  0.7775 -1.8651
12739SOL     OW39657   7.663   7.441   6.889  0.2110 -0.1728 -0.2346
12739SOL    HW139658   7.580   7.486   6.905  1.0559  1.4275 -0.2265
12739SOL    HW239659   7.710   7.497   6.828  1.8489 -0.3712  0.7810
12740SOL     OW39660   0.233   1.506   0.381 -0.0760 -0.0922 -0.2294
12740SOL    HW139661   0.146   1.544   0.387 -0.5383 -0.5779 -2.7952
12740SOL    HW239662   0.226   1.440   0.311  1.3328 -3.0630  2.1786
12741SOL     OW39663   1.767   2.221  10.377  0.1294  0.0677 -0.5167
12741SOL    HW139664   1.695   2.259  10.428 -0.1691  0.3315 -1.1260
12741SOL    HW239665   1.823   2.178  10.442  0.8119  2.0695  0.2779
12742SOL     OW39666   6.612   3.361   5.846  0.0143  1.0108 -0.1224
12742SOL    HW139667   6.519   3.343   5.864  0.1014 -0.1034 -0.7136
12742SOL    HW239668   6.610   3.421   5.772 -0.2426 -0.6981 -1.5682
12743SOL     OW39669   7.594   4.299   6.109  0.0479 -0.3042 -0.6396
12743SOL    HW139670   7.502   4.314   6.133  0.3600  0.0053  0.4106
12743SOL    HW239671   7.635   4.385   6.117  0.5702 -0.5642 -0.4738
12744SOL     OW39672   5.105   4.533   4.790  0.0381 -0.2498  0.3611
12744SOL    HW139673   5.087   4.610   4.843 -0.3150 -0.5680  0.7148
12744SOL    HW239674   5.068   4.460   4.841  0.0836 -0.6095 -0.1155
12745SOL     OW39675   1.313   0.658   9.467 -0.2564  0.3081  0.0395
12745SOL    HW139676   1.286   0.750   9.471  1.1024  0.7579 -0.5653
12745SOL    HW239677   1.233   0.610   9.446 -0.5779  1.6244 -1.9736
12746SOL     OW39678   7.381   6.637   6.724  0.1606  0.4032 -0.1866
12746SOL    HW139679   7.435   6.713   6.705  0.7860 -0.0340 -0.1748
12746SOL    HW239680   7.403   6.613   6.814  0.2375 -0.0083 -0.3102
12747SOL     OW39681   1.240   0.161   8.513 -0.0634  0.1367 -0.1437
12747SOL    HW139682   1.334   0.146   8.519 -0.1123  0.3804  1.6746
12747SOL    HW239683   1.227   0.250   8.545 -0.9559 -0.0975  0.1961
12748SOL     OW39684   5.019   2.028   7.036 -0.1220 -0.3578 -1.1241
12748SOL    HW139685   5.095   2.081   7.012  1.2481 -1.2471  0.9227
12748SOL    HW239686   4.944   2.086   7.021  1.0501  0.9962 -2.0415
12749SOL     OW39687   7.015   3.012   4.492 -0.6356  0.0408 -0.1070
12749SOL    HW139688   7.031   3.093   4.540 -0.8417  0.9586 -1.5426
12749SOL    HW239689   7.102   2.974   4.480 -0.4743  0.3552  0.0595
12750SOL     OW39690   7.012   0.650   2.761 -0.0427  0.3544 -0.2961
12750SOL    HW139691   7.091   0.671   2.812 -0.7207  0.0597  0.8991
12750SOL    HW239692   6.961   0.731   2.761 -1.1662 -0.2989  1.5953
12751SOL     OW39693   4.622   1.984   0.166  0.0512 -0.2934  0.7178
12751SOL    HW139694   4.641   2.072   0.199 -2.0323 -0.2526  1.9919
12751SOL    HW239695   4.676   1.926   0.219  0.1342  0.1093  1.0755
12752SOL     OW39696   0.957   3.986   1.061 -0.0971 -0.1150 -0.1601
12752SOL    HW139697   1.029   4.049   1.051  0.6151 -0.2779  2.8846
12752SOL    HW239698   0.919   3.979   0.973  2.6788  1.0579 -1.5999
12753SOL     OW39699   3.503   0.081   7.047 -0.0259  0.0153  0.0386
12753SOL    HW139700   3.537   0.106   7.133  0.2372  0.6310 -0.2386
12753SOL    HW239701   3.457   0.159   7.015  1.4347  0.4325 -1.1605
12754SOL     OW39702   2.061   1.460   4.953  0.4627 -0.5766 -0.5010
12754SOL    HW139703   2.130   1.430   4.894  0.4003 -0.5226 -0.6011
12754SOL    HW239704   2.098   1.450   5.041  0.5861 -0.5757 -0.5535
12755SOL     OW39705   0.830   2.287  10.507  0.7217  0.4073 -0.0584
12755SOL    HW139706   0.760   2.320  10.564  0.7396 -0.2310  0.3462
12755SOL    HW239707   0.890   2.241  10.566  1.2368  0.5401 -0.4688
12756SOL     OW39708   6.288   0.233   2.839  0.2055  0.0253 -0.1342
12756SOL    HW139709   6.219   0.286   2.799  2.1411  1.6778 -1.4539
12756SOL    HW239710   6.317   0.174   2.769 -0.3777 -1.2633  0.6596
12757SOL     OW39711   4.124   5.872   1.286 -0.1098 -0.1131 -0.0379
12757SOL    HW139712   4.095   5.948   1.235 -0.0229 -0.4829 -0.6474
12757SOL    HW239713   4.198   5.837   1.237  0.7303  0.2111  0.9670
12758SOL     OW39714   1.371   6.787   5.811 -0.4599 -0.1591 -0.0010
12758SOL    HW139715   1.410   6.874   5.823  0.3928 -0.3852 -0.9832
12758SOL    HW239716   1.277   6.803   5.808 -0.2588  0.9152 -1.5277
12759SOL     OW39717   4.109   0.859  11.489 -0.4883  0.7553  0.4285
12759SOL    HW139718   4.038   0.872  11.426 -0.8040  1.2048  0.8696
12759SOL    HW239719   4.067   0.821  11.565 -0.0459 -0.1216  0.2471
12760SOL     OW39720   4.856   5.794   7.205  0.0332 -0.0144  0.5298
12760SOL    HW139721   4.926   5.753   7.153  1.2686  2.6918 -0.0995
12760SOL    HW239722   4.777   5.745   7.182  1.3340 -1.7555 -0.4376
12761SOL     OW39723   1.739   1.984   6.406  0.0801 -0.6573  0.1063
12761SOL    HW139724   1.801   1.968   6.476  0.0610  1.8576  0.8204
12761SOL    HW239725   1.786   2.042   6.346 -1.1088  0.2228 -0.0108
12762SOL     OW39726   1.050   0.923   8.963  0.7370  0.0858  0.4301
12762SOL    HW139727   0.967   0.944   8.921  0.9094  0.3114  0.2046
12762SOL    HW239728   1.097   0.870   8.898  0.1292 -1.4038  1.1428
12763SOL     OW39729   1.012   6.849   9.574  0.4936 -0.1995 -0.7332
12763SOL    HW139730   0.987   6.878   9.662 -0.3536 -0.0407 -1.0174
12763SOL    HW239731   1.070   6.775   9.589  3.1661  1.8833  0.0515
12764SOL     OW39732   5.025   1.604   1.566 -0.3260 -0.0227 -0.8488
12764SOL    HW139733   5.051   1.641   1.651  1.7215 -0.9804 -0.9980
12764SOL    HW239734   4.967   1.531   1.589 -0.2863  0.1078 -0.3156
12765SOL     OW39735   2.200   1.530   1.524 -0.2049  0.2387  0.4013
12765SOL    HW139736   2.145   1.468   1.571  0.8184 -1.4734 -0.5357
12765SOL    HW239737   2.215   1.602   1.585 -1.6719 -0.2916  1.4184
12766SOL     OW39738   0.146   6.289   8.775 -0.9612 -0.0892  0.2021
12766SOL    HW139739   0.074   6.246   8.729 -0.5519 -0.7386  0.1725
12766SOL    HW239740   0.184   6.347   8.709 -0.1582 -1.2697 -0.4063
12767SOL     OW39741   7.474   0.591   5.582  0.1682 -0.2822 -0.0179
12767SOL    HW139742   7.537   0.591   5.655  0.6488 -0.2957 -0.4290
12767SOL    HW239743   7.466   0.683   5.557  0.8074 -0.3888 -0.6320
12768SOL     OW39744   7.510   4.200   1.737 -0.4047 -0.3044  0.2108
12768SOL    HW139745   7.584   4.165   1.686 -0.5823  1.1388 -1.1146
12768SOL    HW239746   7.548   4.269   1.790 -0.6300 -0.2418  0.2925
12769SOL     OW39747   5.416   1.264   5.767  0.0880 -0.5941 -0.0336
12769SOL    HW139748   5.325   1.278   5.793  0.5152  1.6864  0.4290
12769SOL    HW239749   5.463   1.248   5.849  0.5377  1.0858  0.0637
12770SOL     OW39750   3.529   4.220   0.549 -0.1328  0.1151 -0.6951
12770SOL    HW139751   3.445   4.179   0.528 -0.2059  0.4180 -1.0114
12770SOL    HW239752   3.554   4.266   0.468 -0.2700  1.0522 -0.2180
12771SOL     OW39753   7.891   7.920   8.880  0.0819  0.4828  0.6124
12771SOL    HW139754   7.963   7.944   8.939  1.0329 -2.9584  1.0720
12771SOL    HW239755   7.812   7.946   8.926  0.8985 -0.0333  2.3939
12772SOL     OW39756   3.710   0.964  12.096 -0.1501 -0.1809  0.5229
12772SOL    HW139757   3.765   1.021  12.150  0.8289  0.3248 -0.9535
12772SOL    HW239758   3.621   0.990  12.117  0.2612  1.1833  0.6515
12773SOL     OW39759   7.163   7.468   0.583  0.1621 -0.2020 -0.0014
12773SOL    HW139760   7.174   7.534   0.652  0.1116  0.0623 -0.2456
12773SOL    HW239761   7.217   7.500   0.511  0.7725 -0.8382  0.1676
12774SOL     OW39762   0.986   0.764  11.230 -0.4579  0.2778 -0.1374
12774SOL    HW139763   0.945   0.849  11.248 -2.2971 -0.1611 -1.9444
12774SOL    HW239764   1.012   0.769  11.138  2.9232  0.1825  0.6713
12775SOL     OW39765   1.744   2.151   1.230  0.3839 -0.3075  0.5831
12775SOL    HW139766   1.714   2.073   1.277  0.6737 -1.0710 -0.4694
12775SOL    HW239767   1.764   2.120   1.142  0.5051  0.9637  0.1425
12776SOL     OW39768   1.133   4.809  10.784 -0.3429  0.3263 -0.0998
12776SOL    HW139769   1.048   4.808  10.738 -0.3148 -0.1210 -0.1481
12776SOL    HW239770   1.115   4.852  10.867 -0.7349 -0.2282  0.1070
12777SOL     OW39771   0.403   5.506   8.113 -0.3843  0.0900 -0.2408
12777SOL    HW139772   0.443   5.537   8.194 -2.4433 -1.2278  1.4136
12777SOL    HW239773   0.431   5.414   8.106  0.2007  0.3417 -1.3236
12778SOL     OW39774   2.556   7.634   7.582 -0.5221  0.0810  0.1539
12778SOL    HW139775   2.490   7.703   7.586 -0.8005 -0.2155  2.8136
12778SOL    HW239776   2.621   7.659   7.647  0.4509 -1.1103 -0.3183
12779SOL     OW39777   7.317   2.042   6.598  0.5439  0.0391  0.0981
12779SOL    HW139778   7.293   1.980   6.668  0.9731 -1.1513 -0.7682
12779SOL    HW239779   7.311   2.128   6.639  0.3959 -0.6020  1.4864
12780SOL     OW39780   7.321   5.798   2.174 -0.1118  0.3549 -0.0640
12780SOL    HW139781   7.363   5.832   2.253 -0.0758 -0.1041  0.1159
12780SOL    HW239782   7.355   5.853   2.103  1.1445 -0.3011  0.0101
12781SOL     OW39783   0.895   1.879   9.883  0.1169  0.0803 -0.0250
12781SOL    HW139784   0.945   1.860   9.804 -2.2978  1.7404 -2.0943
12781SOL    HW239785   0.890   1.796   9.929  2.6731 -0.6482 -0.9120
12782SOL     OW39786   5.201   6.621   3.101  0.1174 -0.6277  0.2043
12782SOL    HW139787   5.267   6.617   3.032  0.5764 -1.5384  0.6757
12782SOL    HW239788   5.246   6.659   3.176  0.0679 -1.1165  0.4844
12783SOL     OW39789   6.384   7.620   7.028  0.3528 -0.4425  0.3676
12783SOL    HW139790   6.316   7.626   6.961 -0.3006 -1.5348  0.9099
12783SOL    HW239791   6.343   7.659   7.106  1.1796  1.0138  0.1083
12784SOL     OW39792   4.705   2.354   9.621  0.0501 -0.1428 -0.6277
12784SOL    HW139793   4.641   2.358   9.550  0.1941 -0.7163 -0.7933
12784SOL    HW239794   4.668   2.293   9.684 -0.1924  0.5531 -0.0820
12785SOL     OW39795   1.493   4.296   0.019  0.4711 -0.1805  0.0665
12785SOL    HW139796   1.498   4.201   0.033  0.5492 -0.2248 -0.2366
12785SOL    HW239797   1.571   4.316  -0.032  0.6654  0.1163  0.4870
12786SOL     OW39798   2.431   1.431   4.576  0.3351  0.1953 -0.2550
12786SOL    HW139799   2.506   1.428   4.636 -1.9358  0.4323  2.8462
12786SOL    HW239800   2.428   1.344   4.537  1.1456 -0.4332  1.0113
12787SOL     OW39801   5.588   5.903   2.122  0.1344  0.0478  0.3075
12787SOL    HW139802   5.671   5.948   2.139  0.1500 -0.1224  0.6830
12787SOL    HW239803   5.558   5.939   2.038  0.6335  0.0393  0.1234
12788SOL     OW39804   5.228   3.846   0.008 -0.3058 -0.1498  0.1991
12788SOL    HW139805   5.268   3.760   0.017 -1.1984 -0.5202  0.8541
12788SOL    HW239806   5.206   3.872   0.098 -1.1198  0.2142 -0.0924
12789SOL     OW39807   1.749   6.688   0.631 -0.2713 -0.0281 -0.4447
12789SOL    HW139808   1.824   6.629   0.637  0.5195  0.9469 -0.4768
12789SOL    HW239809   1.690   6.658   0.700  1.1568  0.5570  1.1068
12790SOL     OW39810   0.097   1.332   9.209  0.1246  0.5420 -0.5264
12790SOL    HW139811   0.144   1.330   9.125  0.3087 -1.9258 -0.4520
12790SOL    HW239812   0.136   1.405   9.256  2.3138  0.0312 -1.3938
12791SOL     OW39813   7.046   2.664   7.812  0.2801 -0.0276  0.1998
12791SOL    HW139814   7.035   2.687   7.905 -0.6372  0.8850 -0.1191
12791SOL    HW239815   7.118   2.718   7.782 -0.4950  0.9095 -0.0171
12792SOL     OW39816   6.189   1.380   6.222 -0.4446  0.2767  0.2089
12792SOL    HW139817   6.218   1.289   6.227  0.9897  0.7284  0.7188
12792SOL    HW239818   6.193   1.402   6.129  0.2423  0.1206  0.1934
12793SOL     OW39819   5.718   2.074   4.162 -0.5475 -0.1045 -0.1844
12793SOL    HW139820   5.791   2.028   4.202 -2.5060 -1.5880  1.9467
12793SOL    HW239821   5.687   2.015   4.093 -0.6069 -0.1476 -0.1217
12794SOL     OW39822   4.402   6.233   8.238  0.0017  0.0158 -0.1499
12794SOL    HW139823   4.364   6.299   8.296  1.1926 -0.0447  0.7441
12794SOL    HW239824   4.470   6.191   8.291  1.1601 -0.0193 -1.6027
12795SOL     OW39825   5.547   1.879   4.038  0.8864  0.2318  0.3466
12795SOL    HW139826   5.480   1.939   4.005  0.6168  0.2562  0.9358
12795SOL    HW239827   5.499   1.801   4.064  1.0157  0.4628  1.2987
12796SOL     OW39828   7.107   0.818   3.804 -0.0369  0.3406 -0.1731
12796SOL    HW139829   7.058   0.852   3.730 -1.8852 -0.4165  0.6630
12796SOL    HW239830   7.157   0.894   3.836  1.8098  0.4063 -2.8652
12797SOL     OW39831   0.815   6.187   6.068 -0.2124  0.3859 -0.1964
12797SOL    HW139832   0.751   6.253   6.092  0.3173  0.8062  0.0968
12797SOL    HW239833   0.768   6.104   6.074 -1.2166  0.8058 -1.7643
12798SOL     OW39834   3.132   7.124   6.847 -0.4358 -0.7248  0.5012
12798SOL    HW139835   3.065   7.064   6.814 -0.5555 -0.5722  0.4683
12798SOL    HW239836   3.209   7.106   6.793 -1.4070  1.4564 -1.8058
12799SOL     OW39837   5.687   6.244   9.250 -0.3387  0.0233  0.1016
12799SOL    HW139838   5.645   6.315   9.201  0.9230  0.3615 -0.5495
12799SOL    HW239839   5.622   6.216   9.314 -1.1858  1.1534 -0.2436
12800SOL     OW39840   0.059   7.542   8.486 -0.6594 -0.3894 -0.2933
12800SOL    HW139841   0.153   7.540   8.465 -0.7304  1.5642 -1.0684
12800SOL    HW239842   0.041   7.457   8.526  1.4030 -0.8738 -0.2830
12801SOL     OW39843   4.024   0.935   4.705 -0.3663  0.0234  0.1801
12801SOL    HW139844   3.941   0.979   4.715  0.0884  0.5686  1.7641
12801SOL    HW239845   4.083   1.001   4.668 -0.4668 -0.1900 -0.3789
12802SOL     OW39846   0.796   7.739   1.038 -0.2767  0.0573  0.3839
12802SOL    HW139847   0.849   7.783   0.971 -0.9179  0.1277 -0.0831
12802SOL    HW239848   0.813   7.789   1.118  1.1009 -0.4984  0.4537
12803SOL     OW39849   0.395   0.524   7.917  0.1320 -0.0541  0.2478
12803SOL    HW139850   0.371   0.611   7.885  1.8682  2.2534  4.4339
12803SOL    HW239851   0.316   0.492   7.960  0.4315  1.1930  1.8212
12804SOL     OW39852   4.092   2.486  10.125 -0.5697  0.0039  0.3307
12804SOL    HW139853   4.010   2.506  10.080 -0.7196 -1.1089  0.0769
12804SOL    HW239854   4.137   2.425  10.067  0.4221  0.5652  0.4909
12805SOL     OW39855   4.664   5.783  11.924  0.0413 -0.0172 -0.8027
12805SOL    HW139856   4.697   5.693  11.927  0.3618  0.1183  0.3300
12805SOL    HW239857   4.685   5.819  12.011  0.0762  1.2022 -1.2963
12806SOL     OW39858   7.339   1.496   3.481 -0.1584 -0.6302  0.1369
12806SOL    HW139859   7.338   1.584   3.520 -0.4314 -0.9847  0.9444
12806SOL    HW239860   7.426   1.488   3.443  0.1911 -0.3494  0.8595
12807SOL     OW39861   6.714   3.198   7.684  0.2722 -0.3249 -0.3756
12807SOL    HW139862   6.619   3.211   7.677  0.5574  1.5532 -1.6287
12807SOL    HW239863   6.745   3.276   7.731  1.0342 -1.8149  1.6980
12808SOL     OW39864   2.966   7.286   1.008 -0.4923 -0.2161 -0.4437
12808SOL    HW139865   3.010   7.230   1.072 -0.9244  0.9837  0.9552
12808SOL    HW239866   2.902   7.228   0.966  0.4089 -1.2481 -0.4444
12809SOL     OW39867   6.202   3.377  10.023 -0.0737 -0.2910  0.6534
12809SOL    HW139868   6.149   3.451   9.993 -1.3265 -2.1812 -2.2722
12809SOL    HW239869   6.151   3.339  10.095  0.3130  1.2855  1.8129
12810SOL     OW39870   2.192   2.331  10.258 -0.1116 -0.3187 -0.5283
12810SOL    HW139871   2.279   2.369  10.248 -0.0334 -0.5448 -0.6905
12810SOL    HW239872   2.206   2.249  10.304 -0.4689  0.7417  1.5803
12811SOL     OW39873   3.520   6.960   0.300 -0.0068 -0.3071  0.0189
12811SOL    HW139874   3.511   7.045   0.259  0.4700 -0.9207 -1.4310
12811SOL    HW239875   3.473   6.900   0.242  0.8128 -1.2331  0.2777
12812SOL     OW39876   6.879   5.027   4.313  0.0066  0.2893  0.5604
12812SOL    HW139877   6.863   4.956   4.251  1.5789  0.9032 -0.6476
12812SOL    HW239878   6.819   5.011   4.385  0.1519 -2.1292  0.2232
12813SOL     OW39879   5.877   4.824   8.448 -0.1539  0.0410 -0.4435
12813SOL    HW139880   5.876   4.841   8.542 -0.0150 -2.2830  0.0266
12813SOL    HW239881   5.816   4.888   8.412 -1.1003  0.2250  1.3792
12814SOL     OW39882   2.958   6.843  12.182 -0.1821  0.1233  0.3290
12814SOL    HW139883   3.009   6.915  12.218 -0.6695  0.4207  0.4289
12814SOL    HW239884   3.017   6.767  12.188  0.3561  0.5184  0.1633
12815SOL     OW39885   2.455   0.377   3.683 -0.1070 -0.2067 -0.1903
12815SOL    HW139886   2.509   0.368   3.762  0.7021 -1.7989 -0.8704
12815SOL    HW239887   2.370   0.341   3.709 -0.7385  1.8543  0.7396
12816SOL     OW39888   4.288   2.022   1.936  0.4417  0.6179  0.0672
12816SOL    HW139889   4.242   1.942   1.962  1.5997 -0.4639 -1.0952
12816SOL    HW239890   4.242   2.053   1.859  1.2135 -0.0875 -0.6936
12817SOL     OW39891   3.741   3.101   0.471  0.1044  0.5943 -0.1196
12817SOL    HW139892   3.732   3.011   0.441  1.0616  0.9117 -1.4285
12817SOL    HW239893   3.763   3.094   0.564  0.7532 -0.5439 -0.3510
12818SOL     OW39894   2.516   7.047  10.673  0.2907  0.6366 -0.2675
12818SOL    HW139895   2.552   6.999  10.748 -1.6970  0.3416  0.5617
12818SOL    HW239896   2.464   7.118  10.712 -0.3930  0.7749 -1.3795
12819SOL     OW39897   4.779   5.210   6.911 -0.1393 -0.0806 -0.6746
12819SOL    HW139898   4.786   5.298   6.949  1.3220 -0.7880  0.7999
12819SOL    HW239899   4.688   5.184   6.930 -0.3595  0.8122 -0.4467
12820SOL     OW39900   7.406   1.440   1.627  0.4043 -0.3550  0.1917
12820SOL    HW139901   7.429   1.441   1.720 -0.7730 -0.7953  0.5008
12820SOL    HW239902   7.383   1.531   1.607  2.1911  0.0649 -0.0893
12821SOL     OW39903   6.411   2.422   1.332  0.2471 -0.4643  0.5912
12821SOL    HW139904   6.439   2.397   1.243 -0.0011  0.6831  0.1799
12821SOL    HW239905   6.330   2.374   1.346  0.3718 -0.7792  0.2613
12822SOL     OW39906   0.964   7.416   6.194  0.0139  1.0817 -0.3059
12822SOL    HW139907   1.046   7.449   6.230  0.7022 -1.4732  0.6450
12822SOL    HW239908   0.960   7.325   6.222 -2.0869  0.5008 -2.2110
12823SOL     OW39909   4.174   5.253   3.782  0.0476 -0.0774 -0.3905
12823SOL    HW139910   4.252   5.257   3.838  0.3392  2.2992 -0.8392
12823SOL    HW239911   4.156   5.160   3.772  0.2393 -0.6495  3.2497
12824SOL     OW39912   7.792   0.670   0.629  0.6212 -0.3051 -0.6294
12824SOL    HW139913   7.763   0.659   0.538  2.1388  1.2902 -1.3713
12824SOL    HW239914   7.851   0.746   0.626  0.5587 -0.0908  1.7357
12825SOL     OW39915   1.932   6.942  11.675  0.7807  0.0810  0.2163
12825SOL    HW139916   1.982   7.015  11.712  0.0366  0.5698  0.2767
12825SOL    HW239917   1.921   6.882  11.748  0.0174  0.6656  0.5992
12826SOL     OW39918   3.588   2.326   8.028 -0.1941  0.4144  0.4440
12826SOL    HW139919   3.536   2.354   7.953 -0.3825  0.4964  0.6069
12826SOL    HW239920   3.526   2.320   8.100 -0.1893 -0.5657  0.3786
12827SOL     OW39921   6.404   5.635  11.739  0.2489 -0.2392  0.0070
12827SOL    HW139922   6.348   5.577  11.688 -1.2458  0.8948  0.2869
12827SOL    HW239923   6.421   5.709  11.681 -1.3063  0.9687  1.0111
12828SOL     OW39924   2.346   3.145  11.824 -0.4843 -0.2411 -0.6057
12828SOL    HW139925   2.295   3.065  11.836 -0.2963 -0.2233  0.3810
12828SOL    HW239926   2.304   3.209  11.881 -0.0758  0.1121 -0.6947
12829SOL     OW39927   4.675   5.793   4.946 -0.2887  0.0979 -0.1047
12829SOL    HW139928   4.717   5.785   4.860 -1.9121 -4.0411 -0.7481
12829SOL    HW239929   4.744   5.770   5.008 -0.2132 -1.4104 -0.7121
12830SOL     OW39930   7.541   4.386  11.652  0.5261 -0.5067 -0.0305
12830SOL    HW139931   7.547   4.334  11.572 -0.3225 -0.0312 -0.4128
12830SOL    HW239932   7.626   4.431  11.657  0.3309  0.0136 -1.0591
12831SOL     OW39933   5.061   0.341   1.184 -0.5308 -0.0588 -0.1441
12831SOL    HW139934   5.128   0.314   1.246 -0.4593  0.5694  0.0578
12831SOL    HW239935   5.105   0.344   1.099  0.2679  2.3650  0.2862
12832SOL     OW39936   6.302   6.675   3.475  0.3468  0.1839  0.4499
12832SOL    HW139937   6.222   6.690   3.526  0.2632 -1.3092  0.7925
12832SOL    HW239938   6.297   6.739   3.403 -0.8681  0.4810  0.7804
12833SOL     OW39939   5.904   0.673   8.624 -0.6314 -0.8661 -0.2466
12833SOL    HW139940   5.855   0.611   8.679 -0.3006 -0.2123  0.8250
12833SOL    HW239941   5.960   0.618   8.570  1.8419 -1.5685  2.7064
12834SOL     OW39942   7.755   2.111  11.371 -0.6427  0.5723 -0.2618
12834SOL    HW139943   7.685   2.165  11.405  1.1467  1.2620  2.6810
12834SOL    HW239944   7.783   2.058  11.445  1.9122  0.3223 -1.2963
12835SOL     OW39945   7.881   1.735   8.266 -0.0832 -0.5211  0.3260
12835SOL    HW139946   7.969   1.722   8.230  1.0384 -0.6377  2.9018
12835SOL    HW239947   7.833   1.655   8.242  1.8987 -2.5347  2.5114
12836SOL     OW39948   6.601   2.653  11.423  0.2288 -0.0503  0.0113
12836SOL    HW139949   6.605   2.558  11.422  0.0696 -0.0542 -0.3921
12836SOL    HW239950   6.507   2.673  11.417  0.1791  0.1242  1.1269
12837SOL     OW39951   5.583   7.018   7.501  0.0981  0.4301  0.6909
12837SOL    HW139952   5.561   6.925   7.507 -0.4746  0.4730 -0.5476
12837SOL    HW239953   5.499   7.062   7.486  0.4555  1.0740  0.5256
12838SOL     OW39954   6.535   2.388   5.425 -0.0470 -0.0139 -0.3265
12838SOL    HW139955   6.622   2.395   5.385  0.2351  0.4605  0.3579
12838SOL    HW239956   6.552   2.370   5.517 -0.5715  2.7309  0.3991
12839SOL     OW39957   5.323   4.932   1.088  0.0815 -0.6679  0.0897
12839SOL    HW139958   5.372   4.855   1.117 -1.3132 -1.3443  0.7133
12839SOL    HW239959   5.243   4.931   1.140 -1.0459 -0.1251 -1.5523
12840SOL     OW39960   6.886   1.634   6.542 -0.6258  0.5088  0.5552
12840SOL    HW139961   6.815   1.689   6.509 -1.2426 -1.6746 -2.1557
12840SOL    HW239962   6.965   1.687   6.532 -0.9483  0.5305 -3.6475
12841SOL     OW39963   7.870   6.186   4.239 -0.9613  0.2413 -0.0047
12841SOL    HW139964   7.885   6.210   4.148 -1.3709 -2.0887 -0.7322
12841SOL    HW239965   7.952   6.145   4.267 -1.1969  0.0228  0.3741
12842SOL     OW39966   4.060   3.424   4.939  0.1537 -0.0473 -0.4067
12842SOL    HW139967   3.996   3.387   4.878 -2.3494  1.5953  1.0721
12842SOL    HW239968   4.071   3.357   5.006  0.3279 -0.5022 -0.8839
12843SOL     OW39969   4.268   1.753   4.541 -0.4325  0.0500 -0.4531
12843SOL    HW139970   4.344   1.736   4.596 -0.4238  0.7552 -0.2326
12843SOL    HW239971   4.238   1.666   4.514  0.5811 -0.2276 -0.7352
12844SOL     OW39972   3.302   7.421  12.372 -0.1477 -0.1923 -0.1291
12844SOL    HW139973   3.362   7.393  12.302  1.1358  0.3222  0.7345
12844SOL    HW239974   3.359   7.435  12.447 -1.4792 -0.4985  0.9646
12845SOL     OW39975   0.365   0.885   1.062 -0.0456 -0.2642  0.0206
12845SOL    HW139976   0.294   0.874   1.125 -0.3146  1.4388  0.0617
12845SOL    HW239977   0.445   0.864   1.111 -0.2996  0.5045  0.7815
12846SOL     OW39978   2.073   1.958   4.578 -0.2400  0.0969 -0.1453
12846SOL    HW139979   2.136   1.982   4.646  0.8636  1.3694 -1.5462
12846SOL    HW239980   2.006   2.026   4.583  1.0317  1.5941 -1.7425
12847SOL     OW39981   1.606   4.777   5.325  0.2211 -0.1414 -0.1283
12847SOL    HW139982   1.652   4.859   5.305  0.5992 -0.2244  0.3725
12847SOL    HW239983   1.665   4.730   5.384  0.3829 -1.1635 -1.0839
12848SOL     OW39984   0.768   7.377   6.770 -0.0370  0.2379  0.1793
12848SOL    HW139985   0.749   7.294   6.726  0.9805  0.0792  0.0313
12848SOL    HW239986   0.795   7.436   6.700 -0.4081  0.5879  0.3326
12849SOL     OW39987   0.270   6.298  11.411  0.0846  0.3034 -0.2548
12849SOL    HW139988   0.325   6.232  11.455  0.3193  0.2693 -0.5934
12849SOL    HW239989   0.263   6.266  11.321 -1.3715 -0.2520  0.0313
12850SOL     OW39990   1.909   7.741   6.725  0.5162  0.1590  0.1440
12850SOL    HW139991   1.833   7.692   6.694  0.3478 -1.0757  2.3014
12850SOL    HW239992   1.968   7.744   6.650 -0.9289 -0.3450 -1.0681
12851SOL     OW39993   4.717   0.683   9.472  0.6655 -0.3856  0.1848
12851SOL    HW139994   4.625   0.711   9.477  1.2830  1.6378  2.3094
12851SOL    HW239995   4.717   0.594   9.508 -0.5285 -0.6534 -0.4420
12852SOL     OW39996   4.256   1.415   7.911  0.0338  0.3883  0.1400
12852SOL    HW139997   4.286   1.404   7.821 -0.5161 -1.0145  0.1172
12852SOL    HW239998   4.305   1.491   7.943 -0.5756  1.6054 -1.6744
12853SOL     OW39999   4.753   5.651   3.469  0.4657 -0.2332 -0.0430
12853SOL    HW140000   4.698   5.574   3.480  1.5888 -0.9212  1.0715
12853SOL    HW240001   4.801   5.658   3.552  1.6036  0.6924 -0.7430
12854SOL     OW40002   0.536   3.635   1.470  0.0148 -0.3129  0.1709
12854SOL    HW140003   0.602   3.681   1.418 -0.0205  0.7833  1.0597
12854SOL    HW240004   0.586   3.574   1.524  0.1476 -0.6146 -0.2814
12855SOL     OW40005   3.277   1.722   5.317  0.3945 -0.0987 -0.1482
12855SOL    HW140006   3.356   1.688   5.275  1.0174  1.8955 -0.7097
12855SOL    HW240007   3.248   1.793   5.260 -2.1849 -1.1098 -0.2723
12856SOL     OW40008   0.197   5.649   7.852  0.4193  0.4188  0.3326
12856SOL    HW140009   0.276   5.688   7.892  0.0399  0.7298  0.7893
12856SOL    HW240010   0.139   5.723   7.837 -0.9333 -0.0924  2.6282
12857SOL     OW40011   5.866   1.323   2.489  0.0591 -0.2234 -0.0678
12857SOL    HW140012   5.894   1.261   2.421 -0.9162  1.5279 -2.1633
12857SOL    HW240013   5.772   1.332   2.477 -0.1316  0.2318  1.4844
12858SOL     OW40014   6.228   2.577  10.484 -0.0799  0.2396  0.5338
12858SOL    HW140015   6.152   2.556  10.539  0.3409 -0.6793  0.7891
12858SOL    HW240016   6.208   2.662  10.447 -1.6681 -0.3843 -0.1455
12859SOL     OW40017   2.809   3.482   2.428 -0.8711 -0.3097  0.5251
12859SOL    HW140018   2.803   3.476   2.523  0.0445 -2.1609  0.5091
12859SOL    HW240019   2.760   3.407   2.396  0.1019 -0.5906 -0.3823
12860SOL     OW40020   3.709   0.893   2.653 -0.3547  0.0742  0.0418
12860SOL    HW140021   3.638   0.911   2.714 -1.7328 -0.8856 -1.2386
12860SOL    HW240022   3.721   0.798   2.656  0.6916  0.1929  0.0331
12861SOL     OW40023   3.297   5.790   8.068  0.3715  0.5918  0.4507
12861SOL    HW140024   3.391   5.791   8.085  0.4138 -0.5565  0.3862
12861SOL    HW240025   3.257   5.831   8.145  0.8659  0.2197  0.9080
12862SOL     OW40026   6.862   5.306   9.465 -0.3872 -0.0421  0.1369
12862SOL    HW140027   6.892   5.370   9.401  0.0548 -1.8707 -1.5914
12862SOL    HW240028   6.922   5.316   9.539 -1.5426  2.8179  0.8256
12863SOL     OW40029   3.258   3.828   1.918  0.4896 -0.4385 -0.6246
12863SOL    HW140030   3.304   3.778   1.850  1.9753 -0.8267  0.6057
12863SOL    HW240031   3.324   3.843   1.986 -0.3472  1.8467 -0.2219
12864SOL     OW40032   5.552   3.051  10.018  0.2491  0.4573  0.1065
12864SOL    HW140033   5.459   3.072  10.010  0.0411 -0.9792 -2.5590
12864SOL    HW240034   5.571   3.001   9.939  2.8715 -0.9085  1.4895
12865SOL     OW40035   7.700   6.951   5.618 -0.6367 -0.2628  0.3003
12865SOL    HW140036   7.650   6.880   5.577 -1.5198 -0.2482  1.2999
12865SOL    HW240037   7.641   7.027   5.612 -0.2947  0.0211  0.5474
12866SOL     OW40038   3.180   4.248   0.190 -0.0245  0.7394 -0.8293
12866SOL    HW140039   3.106   4.187   0.190  0.2668  0.3753 -1.3382
12866SOL    HW240040   3.231   4.223   0.113  2.1715 -0.8895  1.0146
12867SOL     OW40041   3.194   1.509   5.097  0.6933 -0.0242 -0.2246
12867SOL    HW140042   3.198   1.427   5.047  1.9030  0.5959 -1.1997
12867SOL    HW240043   3.278   1.513   5.143  0.2727  0.2354  0.5371
12868SOL     OW40044   6.125   3.514   8.554 -0.1960  0.3904  0.3885
12868SOL    HW140045   6.116   3.580   8.486 -0.7435  1.0609  1.0945
12868SOL    HW240046   6.117   3.563   8.636  2.0186 -0.1606  0.9767
12869SOL     OW40047   6.219   6.938  11.284 -0.2873  0.6206 -0.0374
12869SOL    HW140048   6.298   6.980  11.317  0.6972 -1.3618  0.3331
12869SOL    HW240049   6.251   6.862  11.235 -1.9422  0.3188 -0.7388
12870SOL     OW40050   3.474   4.677   2.369 -0.3593 -0.1158 -0.5405
12870SOL    HW140051   3.456   4.651   2.279  1.6306 -0.4355 -0.9092
12870SOL    HW240052   3.480   4.594   2.417 -0.1919 -0.0178 -0.3904
12871SOL     OW40053   4.512   6.357   3.642 -0.1236  0.4179  0.2489
12871SOL    HW140054   4.509   6.369   3.547 -0.8040  0.6333  0.2896
12871SOL    HW240055   4.583   6.414   3.672 -0.7890  1.3816  0.0139
12872SOL     OW40056   3.974   2.691   9.569 -0.3810 -0.5983  0.2752
12872SOL    HW140057   3.944   2.629   9.636 -1.2850 -1.0432 -0.5180
12872SOL    HW240058   3.903   2.694   9.506  0.6958 -0.6440 -0.9834
12873SOL     OW40059   6.866   2.341  11.407  0.4598  0.3048  0.1924
12873SOL    HW140060   6.939   2.402  11.413 -0.5876  1.8664 -1.7261
12873SOL    HW240061   6.862   2.317  11.314 -0.7737 -0.6296  0.4527
12874SOL     OW40062   4.384   7.828   0.241 -0.7915 -0.5270  0.7504
12874SOL    HW140063   4.302   7.780   0.254 -1.2330  0.1603  0.5733
12874SOL    HW240064   4.386   7.892   0.312 -0.4401 -0.4945  0.7127
12875SOL     OW40065   4.161   1.224   8.105 -0.1732 -0.2281  0.1022
12875SOL    HW140066   4.175   1.317   8.123  3.2558 -0.9823  2.5070
12875SOL    HW240067   4.213   1.207   8.026 -1.4023  0.0038 -0.7691
12876SOL     OW40068   3.658   3.899   0.318 -0.3405 -0.2175  0.0181
12876SOL    HW140069   3.567   3.915   0.342 -0.0412  0.3619  0.8104
12876SOL    HW240070   3.688   3.831   0.379  0.0803  0.4119  0.5285
12877SOL     OW40071   4.552   2.982   0.560 -0.1413  0.0265  0.0293
12877SOL    HW140072   4.555   2.930   0.480 -1.1093  0.3803 -0.2486
12877SOL    HW240073   4.594   3.065   0.537 -1.9934  0.8062 -0.6454
12878SOL     OW40074   1.604   3.639   4.916  0.3918  0.2486 -0.0553
12878SOL    HW140075   1.617   3.708   4.981  0.1660  0.0881  0.1625
12878SOL    HW240076   1.650   3.670   4.838 -0.0573  0.8339 -0.0890
12879SOL     OW40077   7.694   2.116   5.111 -0.1405 -0.3355  0.1483
12879SOL    HW140078   7.651   2.172   5.046  0.6749  0.5510  0.3330
12879SOL    HW240079   7.761   2.173   5.150 -0.2836 -0.9986  1.4165
12880SOL     OW40080   6.870   6.483   3.711 -0.0719  0.0126 -0.0825
12880SOL    HW140081   6.862   6.567   3.755 -1.2344 -0.4803  0.6922
12880SOL    HW240082   6.904   6.504   3.624  2.7731  0.9816  1.1370
12881SOL     OW40083   0.061   5.853   8.423  0.2089 -0.0266  0.1452
12881SOL    HW140084   0.150   5.881   8.441  0.2963 -0.6551  0.6930
12881SOL    HW240085   0.069   5.789   8.352  0.0473  0.9876 -0.8152
12882SOL     OW40086   1.817   1.584   0.203  0.2233 -0.3243  0.1074
12882SOL    HW140087   1.813   1.501   0.250  0.2235  0.1026  0.8833
12882SOL    HW240088   1.825   1.559   0.111 -0.1190 -1.1806  0.2969
12883SOL     OW40089   7.188   3.211   8.544 -0.0318 -0.1004 -0.3132
12883SOL    HW140090   7.118   3.177   8.488 -1.3359  0.0857  1.1273
12883SOL    HW240091   7.176   3.306   8.543  1.5430  0.1265 -1.7079
12884SOL     OW40092   2.628   7.084   4.790  0.3186  0.0883 -0.1108
12884SOL    HW140093   2.696   7.055   4.729  1.5159  0.1891  1.1239
12884SOL    HW240094   2.573   7.007   4.803  1.6566 -0.7716  0.7476
12885SOL     OW40095   0.115   4.636   0.374  0.2009  0.2162 -0.6715
12885SOL    HW140096   0.061   4.567   0.335  0.0457 -0.6062  0.9133
12885SOL    HW240097   0.205   4.603   0.367 -0.0108 -1.3043  2.0382
12886SOL     OW40098   6.892   2.101   2.383  0.3522 -0.3285  0.0506
12886SOL    HW140099   6.885   2.172   2.319  0.4054 -0.1400  0.2544
12886SOL    HW240100   6.851   2.136   2.462 -2.1986 -1.5036 -0.6397
12887SOL     OW40101   5.459   1.294  11.438 -0.2612  0.0156  0.1043
12887SOL    HW140102   5.459   1.204  11.469  1.5440  0.2824  0.9673
12887SOL    HW240103   5.371   1.306  11.402 -1.4972 -1.2477  2.4273
12888SOL     OW40104   5.028   4.059   9.373 -0.3931  0.5918 -0.1644
12888SOL    HW140105   5.056   4.149   9.361  1.8647  0.2766  1.7756
12888SOL    HW240106   4.949   4.065   9.427 -2.3039  1.4284 -2.8841
12889SOL     OW40107   0.260   3.343   1.949  0.6581  0.1458  0.8513
12889SOL    HW140108   0.309   3.397   2.011  0.8112 -0.2795  1.1056
12889SOL    HW240109   0.287   3.253   1.969 -0.1670 -0.0875  0.9379
12890SOL     OW40110   3.782   1.139   6.860  0.2580  0.3920  0.2925
12890SOL    HW140111   3.798   1.213   6.919 -0.7624  0.1895  0.8512
12890SOL    HW240112   3.719   1.173   6.796 -1.9663 -0.5289  1.8277
12891SOL     OW40113   6.065   3.304   0.688 -0.2004 -0.0529  0.3483
12891SOL    HW140114   6.057   3.240   0.617 -1.1732 -0.2700  0.6441
12891SOL    HW240115   6.003   3.373   0.666 -0.7940 -0.3048  1.1655
12892SOL     OW40116   3.043   1.141   7.887  0.0493  0.3735 -0.5740
12892SOL    HW140117   3.075   1.107   7.804 -0.1712 -0.2663 -0.4003
12892SOL    HW240118   2.951   1.116   7.890 -0.0039  0.6027 -0.2444
12893SOL     OW40119   4.382   0.249   8.472  0.5584  0.8865 -0.0662
12893SOL    HW140120   4.328   0.272   8.547 -0.1030  0.0294 -0.2668
12893SOL    HW240121   4.397   0.155   8.481  0.8666  0.8646 -0.7496
12894SOL     OW40122   0.361   7.880   7.461 -0.1046 -0.6858 -0.0605
12894SOL    HW140123   0.405   7.796   7.473  0.3749 -0.4895 -0.3931
12894SOL    HW240124   0.326   7.902   7.547  0.3905 -0.8836  0.1959
12895SOL     OW40125   2.405   3.166   6.779  0.0105  0.6527  0.8033
12895SOL    HW140126   2.474   3.104   6.805 -0.2936  0.2969  0.7715
12895SOL    HW240127   2.347   3.171   6.855 -0.6311 -0.0372  0.3737
12896SOL     OW40128   0.253   3.285  10.025  0.3816  0.1014  0.1753
12896SOL    HW140129   0.290   3.198  10.035 -1.6046 -0.8017  0.1117
12896SOL    HW240130   0.175   3.272   9.971  0.1666  1.9574 -0.0307
12897SOL     OW40131   3.494   6.526   6.346  0.0040 -0.2789  0.3252
12897SOL    HW140132   3.428   6.558   6.284  1.2548  2.0287  0.0336
12897SOL    HW240133   3.505   6.434   6.325 -0.4443  0.1638 -2.1805
12898SOL     OW40134   1.514   0.650   1.696  0.8171  0.0811 -0.1543
12898SOL    HW140135   1.551   0.579   1.747  0.5174 -1.2054 -1.6394
12898SOL    HW240136   1.583   0.672   1.633  0.1840 -0.2868 -0.9941
12899SOL     OW40137   2.765   2.870   4.009  0.0741  0.1286 -0.1350
12899SOL    HW140138   2.727   2.794   4.054  2.2359  0.3462  2.2825
12899SOL    HW240139   2.827   2.833   3.947  2.3527 -0.2451  2.1739
12900SOL     OW40140   0.733   6.285   6.484 -0.1270 -0.2894  0.0407
12900SOL    HW140141   0.672   6.275   6.557  0.8366  0.9138  1.0741
12900SOL    HW240142   0.714   6.372   6.449  0.2994 -0.3279 -0.2994
12901SOL     OW40143   6.423   5.745   3.431 -0.2601 -0.1936  0.0135
12901SOL    HW140144   6.341   5.708   3.464 -0.5809 -0.0223 -0.5776
12901SOL    HW240145   6.415   5.839   3.446  0.3168 -0.2879  0.9959
12902SOL     OW40146   6.843   5.479   5.785  0.4639  0.1261  0.3166
12902SOL    HW140147   6.800   5.413   5.730 -1.9581  1.4069  0.5170
12902SOL    HW240148   6.869   5.431   5.864  0.8625 -1.0248 -0.4831
12903SOL     OW40149   6.333   6.388  10.589 -0.5055 -0.0358 -0.9135
12903SOL    HW140150   6.273   6.321  10.558 -1.0747  0.2282 -0.4155
12903SOL    HW240151   6.279   6.468  10.594  0.1001  0.4081 -1.2855
12904SOL     OW40152   6.521   1.535  11.104 -0.0219 -0.0805  0.3845
12904SOL    HW140153   6.546   1.598  11.037  0.5429  0.3443  0.9863
12904SOL    HW240154   6.484   1.588  11.174  1.6423 -0.2617  1.4588
12905SOL     OW40155   6.674   4.033   9.463 -0.3970  0.0312  0.1099
12905SOL    HW140156   6.729   3.955   9.460 -1.4783 -0.8004  0.9011
12905SOL    HW240157   6.616   4.019   9.538 -1.7776  0.7845 -0.7659
12906SOL     OW40158   4.299   6.708   5.474  0.1030  0.1553 -0.3074
12906SOL    HW140159   4.352   6.707   5.554 -0.4514 -0.7691  0.0648
12906SOL    HW240160   4.351   6.657   5.411 -0.0742 -0.2550 -0.1227
12907SOL     OW40161   3.073   6.144   9.562  0.1450  0.1342  0.6182
12907SOL    HW140162   3.094   6.065   9.613 -1.2053 -0.6500  0.0258
12907SOL    HW240163   3.156   6.192   9.558  0.6931 -0.6041  2.0973
12908SOL     OW40164   5.739   5.765   3.537  0.2791 -0.3606 -0.2983
12908SOL    HW140165   5.770   5.708   3.466  1.6990  0.3569 -0.2643
12908SOL    HW240166   5.709   5.844   3.493  2.7031  0.7829 -0.0522
12909SOL     OW40167   6.391   0.956   0.995  0.2131 -0.0038 -0.0631
12909SOL    HW140168   6.428   0.872   1.024  2.0429  0.4156 -0.9935
12909SOL    HW240169   6.397   1.013   1.072  0.1846 -0.3649  0.2063
12910SOL     OW40170   4.669   7.154   5.152  0.3700  0.1967  0.8853
12910SOL    HW140171   4.593   7.203   5.184  1.7464  1.8070  1.8622
12910SOL    HW240172   4.650   7.063   5.175 -0.6510  0.7421  2.4059
12911SOL     OW40173   1.496   3.970  11.026  0.1617  0.2958 -0.3453
12911SOL    HW140174   1.417   3.952  10.976  0.6289 -0.0357 -0.9803
12911SOL    HW240175   1.472   4.041  11.085 -0.2826  1.0142 -1.3675
12912SOL     OW40176   6.513   2.281   8.399  0.0931 -0.0159  0.4616
12912SOL    HW140177   6.448   2.245   8.460 -0.3249 -1.8456 -0.9776
12912SOL    HW240178   6.592   2.230   8.414 -0.5493 -1.8317 -1.7062
12913SOL     OW40179   5.059   1.514   9.627  0.3982  0.4764 -0.7137
12913SOL    HW140180   4.996   1.579   9.594  0.4852  1.0171  0.1511
12913SOL    HW240181   5.123   1.566   9.676  0.5835 -0.2455 -0.1787
12914SOL     OW40182   3.893   5.967   3.597  0.1669 -0.0364 -0.2101
12914SOL    HW140183   3.938   6.015   3.528  1.9434 -1.0584  0.1969
12914SOL    HW240184   3.882   5.879   3.563  1.6744 -0.7455  1.0160
12915SOL     OW40185   5.895   2.081   7.609  0.1057  0.1467  0.7231
12915SOL    HW140186   5.910   2.009   7.670  0.3909  1.0421  1.7328
12915SOL    HW240187   5.801   2.095   7.611  0.2169  0.8235  1.7331
12916SOL     OW40188   4.506   4.993   8.893  0.6460  0.0356  0.1794
12916SOL    HW140189   4.507   5.081   8.930 -0.3909 -0.2129  0.8298
12916SOL    HW240190   4.422   4.987   8.848  0.9375 -0.4450 -0.3072
12917SOL     OW40191   0.826   1.467   4.525 -0.0361 -0.2228  0.1046
12917SOL    HW140192   0.813   1.522   4.448  1.1469 -0.5908 -0.3827
12917SOL    HW240193   0.750   1.484   4.580 -0.8408  0.1420 -1.0857
12918SOL     OW40194   4.302   0.219   3.829  0.4718  0.1373 -0.2287
12918SOL    HW140195   4.371   0.274   3.792  1.6808 -1.6681 -0.8044
12918SOL    HW240196   4.311   0.229   3.924 -0.3891  2.1258 -0.3243
12919SOL     OW40197   5.374   5.548  11.513  0.6869  0.2308 -0.5737
12919SOL    HW140198   5.417   5.627  11.480 -1.1928  0.3622 -2.9811
12919SOL    HW240199   5.284   5.575  11.530  0.2907 -1.1466 -0.3963
12920SOL     OW40200   0.307   6.908   8.678 -0.3687  0.3094 -0.6098
12920SOL    HW140201   0.305   6.826   8.728 -2.3136 -0.3887 -1.7186
12920SOL    HW240202   0.378   6.958   8.718 -0.7036 -0.8911  1.7223
12921SOL     OW40203   6.058   5.964  10.647  0.2371 -0.0216 -0.3459
12921SOL    HW140204   5.970   6.001  10.653  0.5508  0.6690  0.0925
12921SOL    HW240205   6.106   6.023  10.589  0.4075 -0.4145 -0.6114
12922SOL     OW40206   0.784   6.118   8.893  0.0004  0.3069  0.4042
12922SOL    HW140207   0.785   6.126   8.988 -1.3416 -1.0459  0.5725
12922SOL    HW240208   0.849   6.051   8.874 -1.6274 -1.4018  0.6480
12923SOL     OW40209   7.089   7.405   4.230 -0.6066 -0.1319  0.0381
12923SOL    HW140210   7.092   7.457   4.310  1.2322  0.0014 -0.0778
12923SOL    HW240211   7.054   7.465   4.164  1.0366  0.8834  0.0121
12924SOL     OW40212   2.313   0.215  12.191  0.3771 -0.2792  0.0009
12924SOL    HW140213   2.359   0.283  12.239  0.0596 -0.5822  0.7401
12924SOL    HW240214   2.313   0.247  12.100 -1.5253  1.7295  0.6077
12925SOL     OW40215   7.035   0.887  12.140  0.2541  0.1250 -0.7288
12925SOL    HW140216   7.017   0.967  12.188 -0.8535 -1.5126  1.7877
12925SOL    HW240217   7.130   0.879  12.140  0.2911  0.2513  1.1577
12926SOL     OW40218   5.997   4.746   1.325 -0.0992  0.3832  0.4142
12926SOL    HW140219   6.014   4.653   1.308 -1.8445 -0.0099  0.5987
12926SOL    HW240220   6.081   4.780   1.357  0.9997 -0.7505 -1.1044
12927SOL     OW40221   3.719   2.691   4.448 -0.7671  0.4052 -0.3262
12927SOL    HW140222   3.715   2.735   4.363 -0.7742 -0.0946 -0.5893
12927SOL    HW240223   3.728   2.762   4.511 -0.5170  0.7709 -0.7625
12928SOL     OW40224   3.875   4.732   2.909 -0.4005 -0.2450 -0.1827
12928SOL    HW140225   3.927   4.781   2.973  0.2158  1.1972 -1.7425
12928SOL    HW240226   3.936   4.713   2.838 -1.7602  0.7838 -1.6799
12929SOL     OW40227   4.436   4.408   9.085 -0.2056 -0.7115  0.1176
12929SOL    HW140228   4.519   4.364   9.105  0.8150  0.0792 -2.1021
12929SOL    HW240229   4.406   4.442   9.169  1.5129 -1.3409  1.0320
12930SOL     OW40230   6.537   7.792   4.641  0.2938  0.4946  0.0663
12930SOL    HW140231   6.561   7.873   4.687  0.8795 -0.4392  1.4914
12930SOL    HW240232   6.598   7.786   4.569  1.8440  0.1579  1.3472
12931SOL     OW40233   7.179   4.017  12.230 -0.1430 -0.3883 -0.1243
12931SOL    HW140234   7.274   4.016  12.247  0.3473  0.4320 -2.4525
12931SOL    HW240235   7.144   3.952  12.291  2.0333 -1.3964  0.1724
12932SOL     OW40236   7.681   0.079   5.927  0.2176  0.5724 -0.2747
12932SOL    HW140237   7.655   0.001   5.976  0.9763 -0.2848 -1.2117
12932SOL    HW240238   7.766   0.057   5.890  1.5050  2.6535  1.2135
12933SOL     OW40239   2.175   1.970  12.289 -0.1885 -0.2789  0.2965
12933SOL    HW140240   2.108   1.931  12.233  0.2250  0.3391 -0.6624
12933SOL    HW240241   2.216   1.895  12.333 -0.9289 -0.7272  0.2372
12934SOL     OW40242   7.085   6.558   1.496  0.0015  0.5738  0.1248
12934SOL    HW140243   6.991   6.578   1.497 -0.0649  0.2679  1.0649
12934SOL    HW240244   7.111   6.570   1.405 -1.3939 -1.3478 -0.6005
12935SOL     OW40245   4.094   1.448   5.219  0.0490 -0.1369 -0.0209
12935SOL    HW140246   4.159   1.381   5.242  0.5439 -0.6540 -2.5960
12935SOL    HW240247   4.146   1.522   5.188 -0.5320 -0.0191 -0.7499
12936SOL     OW40248   0.766   3.598  10.255  0.0580  0.9715 -0.0132
12936SOL    HW140249   0.775   3.538  10.181  0.2560 -2.1623  2.3778
12936SOL    HW240250   0.854   3.635  10.267 -0.1000  1.9551 -1.5847
12937SOL     OW40251   6.805   0.158   4.034  0.7178  0.5224  1.1398
12937SOL    HW140252   6.830   0.242   4.072 -0.7539  0.8364  1.4678
12937SOL    HW240253   6.840   0.092   4.094  1.0120  0.9259  1.4079
12938SOL     OW40254   7.842   6.591   3.327 -0.4242  0.0372  0.1168
12938SOL    HW140255   7.922   6.574   3.376  0.4063  1.9074 -0.4968
12938SOL    HW240256   7.870   6.592   3.235 -1.6191 -1.6667 -0.3083
12939SOL     OW40257   3.590   6.633   9.615  0.1176  0.5295 -0.4578
12939SOL    HW140258   3.543   6.693   9.559 -2.2538  1.7048  2.5016
12939SOL    HW240259   3.524   6.571   9.646  1.4097 -0.3780  0.6369
12940SOL     OW40260   0.842   3.978   0.817  0.0150 -0.0826 -0.4104
12940SOL    HW140261   0.872   3.938   0.735  0.5916  0.7416 -0.6202
12940SOL    HW240262   0.747   3.982   0.808  0.0995  0.3497 -1.2152
12941SOL     OW40263   5.201   5.218   8.650 -0.0238  0.0149 -0.4156
12941SOL    HW140264   5.256   5.277   8.598  0.0839  0.1586 -0.1406
12941SOL    HW240265   5.139   5.276   8.694 -0.9738 -0.2193 -1.4087
12942SOL     OW40266   0.278   4.113   8.887  0.2386  0.6001  0.3854
12942SOL    HW140267   0.253   4.170   8.960  0.9320  1.3036  0.0969
12942SOL    HW240268   0.200   4.110   8.832 -0.2434  0.1750  1.0828
12943SOL     OW40269   2.626   6.130   7.813  0.5796 -0.8878  0.2695
12943SOL    HW140270   2.570   6.088   7.748  0.8324  0.1306 -0.6375
12943SOL    HW240271   2.707   6.081   7.812 -0.6475 -3.2252  2.5427
12944SOL     OW40272   5.510   1.347   9.526  0.4551 -0.0685 -0.1323
12944SOL    HW140273   5.417   1.327   9.520  0.3321  0.6753 -0.9523
12944SOL    HW240274   5.533   1.327   9.617 -0.2570 -1.2153 -0.1828
12945SOL     OW40275   4.545   6.396  10.142  0.4030 -0.1271 -0.3608
12945SOL    HW140276   4.633   6.367  10.164  1.0738  1.2137 -1.1347
12945SOL    HW240277   4.489   6.358  10.209  1.5909 -0.9054  0.2069
12946SOL     OW40278   0.102   7.038   4.456 -0.4216  0.0393 -0.1100
12946SOL    HW140279   0.085   6.950   4.424  0.4051 -0.0470 -0.3303
12946SOL    HW240280   0.194   7.037   4.483 -0.3384  0.8978 -0.3263
12947SOL     OW40281   6.673   5.720   1.402  0.2873  0.5515 -0.4887
12947SOL    HW140282   6.605   5.656   1.379 -0.9475  1.3519  0.7309
12947SOL    HW240283   6.722   5.678   1.473 -1.1655  1.2627  1.0252
12948SOL     OW40284   3.335   5.366   9.993 -0.3504 -0.2815 -0.2302
12948SOL    HW140285   3.364   5.397   9.908 -1.9441 -1.0715 -1.1116
12948SOL    HW240286   3.345   5.442  10.051 -0.9746  0.8448 -1.5403
12949SOL     OW40287   4.103   2.819   4.211 -0.3303 -0.2989 -0.2013
12949SOL    HW140288   4.114   2.913   4.195  1.8721 -0.3476  0.6827
12949SOL    HW240289   4.035   2.813   4.278 -1.0064  0.5901 -0.7832
12950SOL     OW40290   4.958   6.556   3.172  0.7160 -0.2770 -0.7725
12950SOL    HW140291   5.044   6.583   3.140  0.5544 -0.0435 -1.0216
12950SOL    HW240292   4.952   6.594   3.260  0.4593  0.5878 -1.1485
12951SOL     OW40293   4.816   2.167  10.224 -0.4771  0.5465  0.5873
12951SOL    HW140294   4.743   2.174  10.286 -1.6071 -0.2415 -0.5887
12951SOL    HW240295   4.832   2.073  10.216 -1.4491  0.4914 -1.4740
12952SOL     OW40296   4.069   3.076  10.673 -0.0616 -0.0060 -0.0566
12952SOL    HW140297   4.049   3.095  10.582  0.2151 -0.3139 -0.1852
12952SOL    HW240298   4.027   2.992  10.690  1.3907 -0.8487 -0.4418
12953SOL     OW40299   0.745   4.508   4.886  0.8864 -0.4525 -0.0213
12953SOL    HW140300   0.708   4.596   4.896  0.6251 -0.5572 -0.0580
12953SOL    HW240301   0.832   4.523   4.849  0.1287 -0.2944 -1.8529
12954SOL     OW40302   2.408   1.035   6.696  0.1932  0.0352  0.3592
12954SOL    HW140303   2.482   1.056   6.753  1.0501  1.6422 -1.2641
12954SOL    HW240304   2.428   0.948   6.662 -0.3789 -0.9985  2.4964
12955SOL     OW40305   2.965   1.134   3.825  0.3742  0.0644 -0.3697
12955SOL    HW140306   2.916   1.204   3.782  1.6691  1.1858 -0.0777
12955SOL    HW240307   3.054   1.140   3.788  0.9800 -0.2577  0.9696
12956SOL     OW40308   5.075   4.269   9.170  0.4000  0.0947  0.3010
12956SOL    HW140309   4.999   4.257   9.113  0.5244  0.0146  0.1518
12956SOL    HW240310   5.089   4.363   9.174  1.4120  0.0318 -1.1478
12957SOL     OW40311   3.732   2.021   4.433  0.4414  0.5535 -0.3887
12957SOL    HW140312   3.808   2.026   4.491 -0.7605  1.9103  1.2047
12957SOL    HW240313   3.720   2.111   4.401 -0.0735  0.2123 -1.1850
12958SOL     OW40314   7.114   2.260   5.048  0.1560  0.2879  0.4684
12958SOL    HW140315   7.123   2.318   5.124  0.2479  0.7427  0.1205
12958SOL    HW240316   7.156   2.309   4.976 -0.8046  0.3110 -0.0938
12959SOL     OW40317   5.041   3.256  11.769  0.1531  0.2878 -0.3251
12959SOL    HW140318   4.997   3.303  11.840 -0.3743 -0.0544 -0.4203
12959SOL    HW240319   5.022   3.164  11.786 -0.4051  0.2351 -1.1931
12960SOL     OW40320   3.008   2.403   1.275 -0.2160 -0.0458 -0.1469
12960SOL    HW140321   2.975   2.313   1.276 -1.6766  0.4547 -0.7291
12960SOL    HW240322   2.930   2.456   1.258  1.0625  1.1090 -3.0905
12961SOL     OW40323   3.667   3.740   7.927  0.5876 -0.6338 -0.1469
12961SOL    HW140324   3.706   3.653   7.920  0.7658 -0.7548  1.8850
12961SOL    HW240325   3.653   3.753   8.021 -0.7524  0.9582 -0.5170
12962SOL     OW40326   4.899   6.760   0.839  0.2192 -0.4975 -0.3688
12962SOL    HW140327   4.963   6.730   0.903 -1.9350  1.1387  2.7914
12962SOL    HW240328   4.852   6.831   0.882 -3.2299 -1.0470 -2.7296
12963SOL     OW40329   4.243   1.924   3.821  0.0162 -0.2067 -0.2583
12963SOL    HW140330   4.169   1.950   3.765  0.5898 -0.1175 -0.9819
12963SOL    HW240331   4.238   1.829   3.823 -0.0315 -0.2091 -0.4316
12964SOL     OW40332   1.857   5.995   5.894 -0.2908 -0.5088 -0.1162
12964SOL    HW140333   1.772   6.031   5.868 -0.4538  0.0172  1.0533
12964SOL    HW240334   1.836   5.909   5.931 -0.5645  0.2536  1.6299
12965SOL     OW40335   0.630   7.599   5.604  0.9930 -0.4309  0.0304
12965SOL    HW140336   0.673   7.641   5.679  0.3056  1.7601 -0.7432
12965SOL    HW240337   0.658   7.651   5.528 -1.0695 -0.4474 -0.7962
12966SOL     OW40338   3.949   6.368   2.563 -0.4932  0.5534 -0.1333
12966SOL    HW140339   4.038   6.342   2.542 -0.7673 -0.8543  0.2715
12966SOL    HW240340   3.924   6.429   2.494  0.3951  0.0880 -0.8926
12967SOL     OW40341   4.333   5.235   5.641 -0.5320 -0.1434  0.3650
12967SOL    HW140342   4.382   5.233   5.560  0.0197  0.7941  0.6655
12967SOL    HW240343   4.256   5.288   5.621  0.0637  0.8600  0.6967
12968SOL     OW40344   2.161   5.064   5.513  0.8441 -0.0719 -0.1879
12968SOL    HW140345   2.122   5.136   5.464 -0.8727 -0.0866  1.0654
12968SOL    HW240346   2.222   5.106   5.574  1.6930  0.0802 -1.1140
12969SOL     OW40347   3.705   1.659  11.817  0.7615 -0.4502  0.1593
12969SOL    HW140348   3.728   1.570  11.844 -0.1232 -1.4476 -2.1854
12969SOL    HW240349   3.647   1.648  11.742 -0.5863  2.1069  0.7121
12970SOL     OW40350   0.095   5.963   8.747  0.4305  0.1768  0.1034
12970SOL    HW140351   0.186   5.982   8.723  0.7442 -2.1868 -0.8339
12970SOL    HW240352   0.046   5.976   8.666  0.7284 -3.0325 -0.7270
12971SOL     OW40353   0.728   2.154   2.690 -0.1793 -0.5850  0.1952
12971SOL    HW140354   0.679   2.075   2.666 -1.3960 -0.1597  1.1347
12971SOL    HW240355   0.796   2.123   2.749 -1.2314 -0.8657  1.3164
12972SOL     OW40356   4.993   0.234  10.504  0.2470  0.0790  0.0713
12972SOL    HW140357   4.942   0.186  10.439 -0.6180 -0.4071  1.0797
12972SOL    HW240358   5.007   0.320  10.464  1.3713 -0.7940 -1.5415
12973SOL     OW40359   5.784   3.455  12.084  0.9153  0.3728 -0.2824
12973SOL    HW140360   5.840   3.379  12.071  0.0637 -0.4211  0.5222
12973SOL    HW240361   5.706   3.437  12.031  0.1717  0.0759  0.8851
12974SOL     OW40362   6.533   2.159  10.635  0.4118 -0.2030  0.0271
12974SOL    HW140363   6.470   2.088  10.619  0.7178 -0.6074  0.5844
12974SOL    HW240364   6.588   2.160  10.557  2.9673 -3.2792  1.5590
12975SOL     OW40365   0.071   1.691   5.187  0.1954  0.3400  0.5022
12975SOL    HW140366   0.081   1.736   5.103  0.5842 -0.9668 -0.1752
12975SOL    HW240367  -0.016   1.717   5.218 -0.2903  0.2114 -0.7009
12976SOL     OW40368   0.245   6.755   4.460 -0.1038  0.4874 -0.1759
12976SOL    HW140369   0.339   6.768   4.445 -0.3161  0.3002 -1.8083
12976SOL    HW240370   0.241   6.699   4.537  1.0532  2.2287  1.2291
12977SOL     OW40371   7.197   7.555  10.519  0.4526 -0.0662 -0.2867
12977SOL    HW140372   7.155   7.489  10.464 -0.7663 -1.3400  2.0307
12977SOL    HW240373   7.288   7.527  10.525  0.2050 -0.8937 -0.2639
12978SOL     OW40374   1.560   1.212   9.497  0.0105  0.4167 -0.9272
12978SOL    HW140375   1.534   1.299   9.467 -0.1037  0.1808 -1.5115
12978SOL    HW240376   1.501   1.152   9.452 -1.4269  0.1555  1.1458
12979SOL     OW40377   2.441   1.030   7.334  0.4271 -0.0237 -0.2251
12979SOL    HW140378   2.529   1.024   7.370  0.2952  3.5423  1.0600
12979SOL    HW240379   2.453   1.033   7.240  1.5861 -0.4801 -0.1079
12980SOL     OW40380   0.727   7.047   4.937  0.6601  0.0245  0.1933
12980SOL    HW140381   0.738   7.122   4.878 -0.3580 -0.5553 -0.7684
12980SOL    HW240382   0.730   6.971   4.879 -1.4272 -0.5159  0.7283
12981SOL     OW40383   6.214   7.337   9.416  0.6200 -0.1828  0.0123
12981SOL    HW140384   6.302   7.306   9.437  1.5557 -1.0168 -4.2120
12981SOL    HW240385   6.158   7.261   9.433  0.7904  0.0498  1.8154
12982SOL     OW40386   0.139   5.742   3.407 -0.1747 -0.1526 -0.2612
12982SOL    HW140387   0.200   5.814   3.425  0.3502 -0.6278 -0.1501
12982SOL    HW240388   0.111   5.758   3.316 -0.4547  0.4758 -0.0756
12983SOL     OW40389   7.759   5.860   8.105 -0.2347 -0.2408  0.1210
12983SOL    HW140390   7.768   5.851   8.010 -3.8579  2.2583 -0.6819
12983SOL    HW240391   7.774   5.953   8.122 -1.8591 -0.2048  1.6185
12984SOL     OW40392   4.510   6.198   9.510  0.6255  0.4708 -0.0950
12984SOL    HW140393   4.494   6.105   9.527  0.5834  0.3672 -0.6682
12984SOL    HW240394   4.452   6.219   9.436  0.4525  1.0168  0.1895
12985SOL     OW40395   6.860   3.975  12.294  0.0483  0.4137  0.2361
12985SOL    HW140396   6.856   4.053  12.238  0.5302  0.1081 -0.2230
12985SOL    HW240397   6.797   3.914  12.255  0.9187 -0.0836 -0.4186
12986SOL     OW40398   2.799   7.367  10.121 -0.0055 -0.1120 -0.1005
12986SOL    HW140399   2.764   7.386  10.034 -1.1111 -1.2585  0.0664
12986SOL    HW240400   2.752   7.427  10.179  1.6365  1.5518 -0.3961
12987SOL     OW40401   4.055   0.107   3.292  0.3288 -0.2894 -0.2457
12987SOL    HW140402   3.977   0.161   3.284 -0.2319 -1.2958 -2.1519
12987SOL    HW240403   4.114   0.158   3.348 -0.8967  1.4118 -0.4282
12988SOL     OW40404   4.087   5.840  10.375  0.2955 -0.5278  0.0301
12988SOL    HW140405   4.102   5.935  10.382  0.3251 -0.5230 -0.1001
12988SOL    HW240406   4.162   5.807  10.326 -0.7244 -0.3186 -1.7755
12989SOL     OW40407   4.667   2.434   1.898 -0.2906  0.1289 -0.7247
12989SOL    HW140408   4.589   2.388   1.929  0.3199  0.7518  2.0522
12989SOL    HW240409   4.708   2.468   1.978  1.9246  1.2693 -2.2316
12990SOL     OW40410   3.146   5.776   9.045 -0.0937 -0.0538 -0.6979
12990SOL    HW140411   3.109   5.863   9.030 -2.1170 -0.9261 -1.0531
12990SOL    HW240412   3.107   5.747   9.128  1.0320 -0.4039 -0.2720
12991SOL     OW40413   5.948   6.398   8.833 -0.7075  0.0974  0.4665
12991SOL    HW140414   5.874   6.457   8.817 -1.7240 -0.8996  1.3083
12991SOL    HW240415   5.938   6.370   8.924 -1.3237 -2.7242 -0.3646
12992SOL     OW40416   3.370   0.053   5.009 -0.4508 -0.2468 -0.0300
12992SOL    HW140417   3.406   0.140   5.029  0.7138 -0.1385 -2.1944
12992SOL    HW240418   3.447   0.002   4.982 -1.2198 -1.7697  0.5783
12993SOL     OW40419   4.275   5.233  12.375  0.4643  0.0938 -0.0615
12993SOL    HW140420   4.364   5.198  12.387  0.6178  0.7977  0.9762
12993SOL    HW240421   4.270   5.255  12.282  2.1844  2.1613  0.2813
12994SOL     OW40422   1.725   2.964  12.349 -0.0343  0.6814  0.5178
12994SOL    HW140423   1.758   2.893  12.403  0.6059  0.6774  0.1315
12994SOL    HW240424   1.689   3.027  12.411 -1.4289 -0.3779  0.8218
12995SOL     OW40425   6.590   6.306   4.737 -0.1436 -0.6692  0.6111
12995SOL    HW140426   6.500   6.308   4.768 -0.8644 -0.7432 -1.3289
12995SOL    HW240427   6.604   6.216   4.707  0.4597 -0.5816  0.6181
12996SOL     OW40428   4.345   4.079  10.999  0.2678 -0.3861  0.1652
12996SOL    HW140429   4.275   4.134  11.034 -1.7703 -2.0469 -1.1010
12996SOL    HW240430   4.369   4.021  11.072  0.2770  0.1216  0.5713
12997SOL     OW40431   3.623   5.632   1.460  0.0362 -0.5154  0.1894
12997SOL    HW140432   3.657   5.550   1.426 -0.5307 -0.5940 -0.2028
12997SOL    HW240433   3.700   5.685   1.478  0.4431 -1.3450  1.0063
12998SOL     OW40434   4.691   5.089   5.773  0.4816 -0.2697 -0.3907
12998SOL    HW140435   4.680   4.995   5.761  2.3216 -0.6018  0.2837
12998SOL    HW240436   4.742   5.098   5.854  1.4165  1.2443 -1.1048
12999SOL     OW40437   3.390   6.987  11.856 -0.4743 -0.2688 -0.3882
12999SOL    HW140438   3.356   6.970  11.768  0.0678  0.3168 -0.7149
12999SOL    HW240439   3.445   6.911  11.875 -0.2253 -0.1819 -0.7432
13000SOL     OW40440   2.971   0.740   4.000 -0.1761  0.0421  0.2027
13000SOL    HW140441   3.028   0.814   4.023 -0.8293  0.7120 -0.2768
13000SOL    HW240442   2.895   0.781   3.958 -1.3331 -0.7769  1.4357
13001SOL     OW40443   3.559   0.613   6.915 -0.1537  0.1238  0.2662
13001SOL    HW140444   3.617   0.570   6.979 -1.6899  0.1376  1.7557
13001SOL    HW240445   3.594   0.702   6.908  1.7372 -0.6563 -1.1612
13002SOL     OW40446   5.520   7.144   2.627  0.6923 -0.1950 -0.0699
13002SOL    HW140447   5.537   7.171   2.718 -1.3049 -0.4082  0.4179
13002SOL    HW240448   5.429   7.169   2.612 -0.0025 -2.9616 -0.9613
13003SOL     OW40449   1.632   3.590  10.753 -0.5483  0.3507 -0.6514
13003SOL    HW140450   1.551   3.627  10.717 -1.0279 -0.7438 -0.7236
13003SOL    HW240451   1.678   3.666  10.789 -2.2654  0.8252  0.6950
13004SOL     OW40452   0.453   4.599  10.979 -0.0271  0.3680  0.5932
13004SOL    HW140453   0.501   4.522  10.947 -0.5262 -0.7874  2.4347
13004SOL    HW240454   0.522   4.660  11.007  0.3808 -0.0121  0.4234
13005SOL     OW40455   0.044   2.467   9.636 -0.1222 -0.2354 -0.3932
13005SOL    HW140456   0.028   2.401   9.569  0.0409 -0.6228 -0.0585
13005SOL    HW240457   0.027   2.551   9.593  0.2726 -0.4605 -1.0003
13006SOL     OW40458   2.991   1.693  10.039 -0.3361  0.2840 -0.1724
13006SOL    HW140459   2.943   1.722  10.117 -1.1846 -3.1783  0.7595
13006SOL    HW240460   3.074   1.741  10.043 -0.0550 -0.2158  3.3240
13007SOL     OW40461   6.523   6.210   7.057 -0.2865 -0.0875  0.4509
13007SOL    HW140462   6.452   6.152   7.029  0.5511 -1.2656  0.6593
13007SOL    HW240463   6.567   6.161   7.127  1.5507 -0.0176 -0.5960
13008SOL     OW40464   4.816   4.403   2.522 -0.0586  0.4162 -0.2048
13008SOL    HW140465   4.811   4.310   2.542  1.8168 -0.0267 -1.5027
13008SOL    HW240466   4.794   4.447   2.604  2.0729 -1.2201  1.3480
13009SOL     OW40467   6.564   7.570  11.398 -0.0336 -0.3253  0.2902
13009SOL    HW140468   6.646   7.522  11.386 -0.6080 -1.3349  0.2961
13009SOL    HW240469   6.556   7.624  11.320 -0.4620 -1.9046 -0.8225
13010SOL     OW40470   0.521   6.684  11.268 -0.5781 -0.3735  0.2864
13010SOL    HW140471   0.514   6.652  11.358  3.6004  2.6258  1.9838
13010SOL    HW240472   0.452   6.750  11.261 -0.5872 -0.2261  1.5194
13011SOL     OW40473   3.930   1.700   8.789  0.0552  0.1260  0.2966
13011SOL    HW140474   4.018   1.716   8.823  0.1876  1.0294 -0.4460
13011SOL    HW240475   3.930   1.607   8.766  0.1483 -0.3785  2.1649
13012SOL     OW40476   7.089   2.250  11.701 -0.2137 -0.4004 -0.3029
13012SOL    HW140477   7.148   2.316  11.664 -0.5560  0.3824  0.5038
13012SOL    HW240478   7.014   2.301  11.733 -0.7247 -1.2417 -0.1331
13013SOL     OW40479   3.147   6.092  10.214 -0.0266  0.3988 -0.3800
13013SOL    HW140480   3.191   6.007  10.221 -2.4632 -0.8048  2.2681
13013SOL    HW240481   3.070   6.074  10.160  0.9318  1.7205 -2.3038
13014SOL     OW40482   0.407   2.052   8.002  0.0107  0.4165  0.3988
13014SOL    HW140483   0.473   1.984   7.994  0.6453  1.0784 -0.1583
13014SOL    HW240484   0.455   2.134   7.985 -1.5841  0.7073 -3.7284
13015SOL     OW40485   6.948   5.847   1.968 -0.2923  0.1845  0.0308
13015SOL    HW140486   6.943   5.795   2.048  0.1860  0.7268  0.4137
13015SOL    HW240487   6.921   5.786   1.899 -1.6733 -0.0199  0.7096
13016SOL     OW40488   0.553   3.886   4.433  0.5088 -1.0723  0.2387
13016SOL    HW140489   0.548   3.807   4.379 -2.0190 -0.7187 -0.1514
13016SOL    HW240490   0.495   3.949   4.389  1.5999  0.6503  1.1487
13017SOL     OW40491   4.841   0.366   6.505  0.1197  0.1133  0.0521
13017SOL    HW140492   4.771   0.303   6.492 -0.7954  1.2047 -0.4776
13017SOL    HW240493   4.819   0.411   6.586 -0.5069  1.3248 -0.7595
13018SOL     OW40494   6.953   0.377  10.974 -0.0002 -0.0988 -0.6526
13018SOL    HW140495   6.896   0.407  10.903 -0.6857  0.6048  0.1672
13018SOL    HW240496   6.908   0.404  11.054  1.2139 -0.0290  0.0376
13019SOL     OW40497   4.906   5.247   9.562 -0.4015  0.5551 -0.1902
13019SOL    HW140498   4.994   5.209   9.556 -0.3502  0.5142  0.7256
13019SOL    HW240499   4.850   5.173   9.584 -0.4839  0.7866  0.3946
13020SOL     OW40500   7.693   2.300   3.049 -0.1178 -0.1442  0.1807
13020SOL    HW140501   7.644   2.230   3.091  1.0246 -0.8065  0.4548
13020SOL    HW240502   7.753   2.332   3.116  2.0196 -1.4875 -0.9364
13021SOL     OW40503   6.499   7.067   3.232  0.5061  0.4566 -0.2011
13021SOL    HW140504   6.547   7.131   3.179  0.7660  0.5795  0.1818
13021SOL    HW240505   6.470   7.116   3.309  0.1745  0.2645 -0.2000
13022SOL     OW40506   6.991   5.244   6.767  0.2375  0.1297 -0.1118
13022SOL    HW140507   6.962   5.207   6.684 -0.6596  0.0767  0.2183
13022SOL    HW240508   6.988   5.171   6.829  0.3241  0.3086  0.1072
13023SOL     OW40509   3.512   1.975   9.798 -0.2099 -0.3841  0.2664
13023SOL    HW140510   3.489   2.053   9.748  0.1027 -1.0688 -0.9964
13023SOL    HW240511   3.593   1.944   9.758  0.7598 -0.2626  2.0293
13024SOL     OW40512   3.674   6.385  10.273 -0.3065  0.3007 -0.4910
13024SOL    HW140513   3.610   6.378  10.343  0.9652 -0.7852  0.6135
13024SOL    HW240514   3.647   6.319  10.209  0.5868 -1.3270  0.7461
13025SOL     OW40515   3.535   4.505   6.210 -0.1906 -0.2497  0.1640
13025SOL    HW140516   3.550   4.441   6.141 -2.2209  0.9799 -1.5496
13025SOL    HW240517   3.559   4.589   6.171  0.4360  0.3059  1.6447
13026SOL     OW40518   3.507   6.706  11.666  0.2727  0.1156  0.2869
13026SOL    HW140519   3.518   6.726  11.759 -1.4856 -2.3678  1.1290
13026SOL    HW240520   3.571   6.637  11.649  0.3132  0.2835 -0.2377
13027SOL     OW40521   7.007   3.211   6.024 -0.3545  0.1640 -0.2111
13027SOL    HW140522   7.092   3.199   5.982  0.2549  0.7180  0.8402
13027SOL    HW240523   6.983   3.124   6.055 -0.1176  0.0293 -0.4014
13028SOL     OW40524   4.707   3.173  11.633  0.6400  0.3739  0.4993
13028SOL    HW140525   4.635   3.150  11.574  0.7582 -0.4575  0.6769
13028SOL    HW240526   4.762   3.232  11.581  0.9525 -0.6456 -0.3725
13029SOL     OW40527   2.576   0.497   2.109 -0.0623  0.1432  0.0717
13029SOL    HW140528   2.513   0.448   2.162 -0.2196 -1.7778 -1.7515
13029SOL    HW240529   2.522   0.549   2.050  0.1182  1.4177  0.9741
13030SOL     OW40530   5.497   4.902  11.232 -0.4229  0.3435 -0.0781
13030SOL    HW140531   5.563   4.835  11.213 -1.9741 -0.2974 -4.1776
13030SOL    HW240532   5.417   4.852  11.250 -0.9830  1.0969 -0.4376
13031SOL     OW40533   5.477   5.275  12.329 -0.2390 -0.1526 -0.2460
13031SOL    HW140534   5.473   5.302  12.421  1.0434  3.2158 -1.0198
13031SOL    HW240535   5.570   5.261  12.313 -0.1215  1.7249 -1.5373
13032SOL     OW40536   4.757   2.405   8.653  0.1757  0.3411 -0.6091
13032SOL    HW140537   4.795   2.352   8.722  0.7190  1.8900  0.3334
13032SOL    HW240538   4.710   2.474   8.700  0.2273  1.1965 -1.7841
13033SOL     OW40539   0.558   6.041   6.834 -0.1353 -0.1745  0.0323
13033SOL    HW140540   0.641   6.046   6.881  0.7702  1.4146 -1.6378
13033SOL    HW240541   0.574   5.979   6.763 -0.3482  0.1719 -0.3226
13034SOL     OW40542   5.853   2.476  12.141 -0.0391 -0.0005 -0.4694
13034SOL    HW140543   5.835   2.524  12.060 -2.6817 -0.8260 -0.4752
13034SOL    HW240544   5.768   2.438  12.165  1.2058 -1.7945  1.3827
13035SOL     OW40545   5.337   5.353  12.115  0.1864 -0.0167  0.3851
13035SOL    HW140546   5.402   5.338  12.183  2.5073 -2.1686 -2.1176
13035SOL    HW240547   5.284   5.273  12.114 -0.1087  0.1813 -0.0660
13036SOL     OW40548   0.701   3.874  12.351 -0.6571  0.0613  0.5012
13036SOL    HW140549   0.742   3.865  12.264  0.5704  0.1423  1.0439
13036SOL    HW240550   0.724   3.962  12.379  1.5885 -0.9283  2.1369
13037SOL     OW40551   1.790   5.700   4.975 -0.3158 -0.3881 -0.1906
13037SOL    HW140552   1.787   5.656   5.060 -2.6465  0.4706  0.2344
13037SOL    HW240553   1.704   5.687   4.937  0.9705 -1.6381 -2.9713
13038SOL     OW40554   4.186   0.899   0.415  0.1583 -0.3276 -0.0664
13038SOL    HW140555   4.197   0.994   0.408 -1.7695 -0.0042  0.6209
13038SOL    HW240556   4.271   0.868   0.444  0.5996  1.3058  0.5311
13039SOL     OW40557   1.354   1.356   3.954  0.2360  0.5642 -0.3561
13039SOL    HW140558   1.345   1.315   4.040 -0.9230  0.4019 -0.5305
13039SOL    HW240559   1.442   1.393   3.954  1.2587 -1.7113 -0.1163
13040SOL     OW40560   4.944   0.721   7.742  0.1200  0.1070 -0.4185
13040SOL    HW140561   4.905   0.647   7.696 -1.5512 -0.1722  1.3263
13040SOL    HW240562   5.037   0.699   7.748 -0.2756 -1.7057 -0.2448
13041SOL     OW40563   7.801   5.476   9.788  0.2900  0.0823  0.1749
13041SOL    HW140564   7.742   5.538   9.745 -1.7309 -0.6687  1.7170
13041SOL    HW240565   7.889   5.509   9.769 -0.6568  2.0513 -1.0387
13042SOL     OW40566   0.215   6.255   6.472 -0.1876  0.3521 -0.6702
13042SOL    HW140567   0.170   6.281   6.553  1.9095  1.0240  0.3320
13042SOL    HW240568   0.291   6.312   6.467  0.1929 -0.2570 -2.7041
13043SOL     OW40569   3.563   3.843   2.373  0.4069  0.0928 -0.2800
13043SOL    HW140570   3.580   3.936   2.364 -3.8325  1.2620  1.1787
13043SOL    HW240571   3.476   3.831   2.333 -0.4630 -2.5717  2.0827
13044SOL     OW40572   7.926   4.607  12.052  0.2558 -0.3439 -0.4586
13044SOL    HW140573   7.834   4.581  12.060  0.6324 -1.4690  0.4183
13044SOL    HW240574   7.951   4.578  11.964 -0.2428  0.0492 -0.7394
13045SOL     OW40575   6.273   6.496   4.648  0.3734 -0.5992 -0.6104
13045SOL    HW140576   6.217   6.561   4.691  1.8421  0.0580  0.3875
13045SOL    HW240577   6.286   6.429   4.714 -0.2228 -1.3811 -1.2655
13046SOL     OW40578   7.511   2.703   4.928 -0.4014 -0.3663 -0.2410
13046SOL    HW140579   7.513   2.621   4.878  0.3698 -0.9989  0.7668
13046SOL    HW240580   7.526   2.771   4.863 -1.1005 -1.0148 -1.1123
13047SOL     OW40581   1.189   7.878   1.149  0.0250  0.0553 -0.5974
13047SOL    HW140582   1.215   7.903   1.060  1.0152  0.0228 -0.3299
13047SOL    HW240583   1.127   7.946   1.176  0.9453  0.9710 -0.7251
13048SOL     OW40584   4.340   1.930   7.264 -0.8499 -0.7044 -0.1987
13048SOL    HW140585   4.384   2.015   7.261 -0.5053 -0.8885 -0.5846
13048SOL    HW240586   4.272   1.936   7.197 -0.9455 -0.6693 -0.0983
13049SOL     OW40587   1.327   2.352   3.824  0.3300 -0.6367  0.1346
13049SOL    HW140588   1.357   2.281   3.767  0.4561 -0.4381 -0.0511
13049SOL    HW240589   1.280   2.411   3.765  0.9615 -0.1329  0.1229
13050SOL     OW40590   0.066   4.809   9.707  0.1950  0.3915  0.3751
13050SOL    HW140591   0.090   4.902   9.701 -0.0063  0.4736  0.7942
13050SOL    HW240592   0.022   4.801   9.792 -0.7629  0.1353 -0.1225
13051SOL     OW40593   6.746   6.058   0.987  1.0629  0.2650  0.0156
13051SOL    HW140594   6.741   6.146   1.023 -0.8690  0.4943 -0.7185
13051SOL    HW240595   6.670   6.051   0.930  0.9239 -2.0292  0.3885
13052SOL     OW40596   7.442   7.726   9.949  0.1948 -0.2856 -0.3091
13052SOL    HW140597   7.416   7.693  10.035 -0.1283 -0.7351 -0.5730
13052SOL    HW240598   7.366   7.777   9.920 -0.1023 -0.9577 -0.7478
13053SOL     OW40599   1.056   6.865   1.426  0.4725  0.0027 -0.4415
13053SOL    HW140600   1.139   6.887   1.384  0.9820 -2.0396 -0.5823
13053SOL    HW240601   1.045   6.933   1.493  2.3797  0.1885 -0.2656
13054SOL     OW40602   2.260   6.474   6.450 -0.5826 -0.2076 -0.2570
13054SOL    HW140603   2.169   6.459   6.425 -0.6811 -0.6297  0.3440
13054SOL    HW240604   2.255   6.521   6.533 -0.2519  0.7807 -0.7742
13055SOL     OW40605   0.505   2.496   5.619  0.1631  0.3335 -0.0052
13055SOL    HW140606   0.580   2.437   5.628 -0.4586 -0.6334 -0.8652
13055SOL    HW240607   0.499   2.513   5.525 -1.2093 -0.3327 -0.0633
13056SOL     OW40608   3.853   6.847  10.767 -0.1128 -0.3883 -0.0947
13056SOL    HW140609   3.881   6.929  10.727 -1.1052 -0.1721 -0.3607
13056SOL    HW240610   3.930   6.816  10.814  0.7358 -0.0763 -1.2342
13057SOL     OW40611   2.696   7.433   9.864  0.2091 -0.1475 -0.3654
13057SOL    HW140612   2.728   7.523   9.858 -0.5693  0.3189  1.7005
13057SOL    HW240613   2.647   7.419   9.782 -0.4871  1.6622 -0.3032
13058SOL     OW40614   4.242   4.937   7.772 -0.5995  0.0676  0.3845
13058SOL    HW140615   4.153   4.960   7.799 -0.8612  0.1347 -0.5090
13058SOL    HW240616   4.248   4.843   7.787 -0.4238  0.2579  1.5470
13059SOL     OW40617   3.700   0.764   7.672 -0.5334  0.2639 -0.7397
13059SOL    HW140618   3.616   0.719   7.670 -0.5194  0.2035 -2.8975
13059SOL    HW240619   3.703   0.812   7.589  1.7788 -0.1773 -0.9794
13060SOL     OW40620   1.221   4.268  12.188 -0.1046 -0.0461 -0.2759
13060SOL    HW140621   1.316   4.258  12.202  0.2400  0.2923 -2.1363
13060SOL    HW240622   1.193   4.326  12.259  1.3566  1.0561 -0.5476
13061SOL     OW40623   6.742   0.430   9.680  0.1062  0.4327  0.0806
13061SOL    HW140624   6.661   0.412   9.632  0.0816  0.1463  0.2236
13061SOL    HW240625   6.773   0.343   9.707  1.4283  0.3586 -1.5313
13062SOL     OW40626   7.905   5.979   3.792 -0.0134  0.2076  0.3301
13062SOL    HW140627   7.931   5.914   3.858  0.5035  0.8250  0.7421
13062SOL    HW240628   7.983   5.990   3.738 -0.7528 -1.1046 -1.0961
13063SOL     OW40629   6.936   4.750   3.906 -0.0122 -0.3435  0.1340
13063SOL    HW140630   6.938   4.745   3.810  0.0432 -1.4463  0.1727
13063SOL    HW240631   7.028   4.743   3.932 -0.1917 -3.5153  0.3420
13064SOL     OW40632   7.029   2.667   6.392 -0.4374  0.0336  0.4155
13064SOL    HW140633   6.957   2.716   6.433  1.0510  1.9169  0.9316
13064SOL    HW240634   7.025   2.692   6.300  0.4011  1.2900  0.7025
13065SOL     OW40635   2.305   1.357  10.503 -0.2118 -0.1141 -0.2961
13065SOL    HW140636   2.329   1.420  10.570  1.3079  1.0672 -1.8790
13065SOL    HW240637   2.387   1.313  10.480 -0.5835 -0.1218 -1.7144
13066SOL     OW40638   7.280   4.702   8.748 -0.0842 -0.1003 -0.1753
13066SOL    HW140639   7.224   4.664   8.815  1.0183 -0.9625  0.2842
13066SOL    HW240640   7.229   4.692   8.667 -1.3329  0.7617  0.4640
13067SOL     OW40641   3.829   1.660   4.891 -0.5846 -0.0739 -0.0788
13067SOL    HW140642   3.900   1.692   4.835 -0.4878 -2.3809 -1.3774
13067SOL    HW240643   3.866   1.660   4.979  1.3861 -1.9491 -0.8225
13068SOL     OW40644   0.486   4.337   8.959  0.6207  0.6918 -0.0483
13068SOL    HW140645   0.429   4.260   8.967 -1.1597  2.0543  1.0320
13068SOL    HW240646   0.501   4.346   8.864  0.6007 -0.7617 -0.2172
13069SOL     OW40647   0.986   5.799   5.393 -0.0757 -0.2741  0.3142
13069SOL    HW140648   0.969   5.835   5.306  0.2800  0.4879  0.5493
13069SOL    HW240649   0.976   5.704   5.382 -1.8761 -0.0619 -0.1272
13070SOL     OW40650   1.342   2.768   4.686 -0.9229 -0.5822 -0.0722
13070SOL    HW140651   1.360   2.805   4.772 -1.4093 -0.9810  0.2040
13070SOL    HW240652   1.295   2.838   4.640 -1.7008 -0.7967  0.3932
13071SOL     OW40653   5.924   7.886   6.283  0.0078  0.2619 -0.7035
13071SOL    HW140654   5.984   7.814   6.304 -0.2623 -0.5406 -2.4945
13071SOL    HW240655   5.947   7.911   6.193 -2.3211 -0.0832 -1.4527
13072SOL     OW40656   6.600   3.239   2.074  0.3734  0.3509 -0.0360
13072SOL    HW140657   6.661   3.227   2.001 -1.2468 -1.3279 -1.2140
13072SOL    HW240658   6.565   3.327   2.062  0.1131  0.0957 -1.3619
13073SOL     OW40659   2.943   2.369  11.058  0.6384 -0.0491 -0.1137
13073SOL    HW140660   2.938   2.414  10.973 -1.2507  0.8657  0.4363
13073SOL    HW240661   2.852   2.357  11.084  1.1906 -0.0851  1.9227
13074SOL     OW40662   2.345   6.497   5.260  0.0326 -0.3495  0.4507
13074SOL    HW140663   2.294   6.530   5.187 -0.4359  2.1285  1.7883
13074SOL    HW240664   2.435   6.497   5.229 -0.1958  0.3736 -0.2111
13075SOL     OW40665   4.735   5.135  10.967 -0.3483 -0.5052 -0.1214
13075SOL    HW140666   4.802   5.068  10.951  2.2285  1.2790  2.2908
13075SOL    HW240667   4.710   5.124  11.058 -0.2831  1.3807  0.1769
13076SOL     OW40668   0.628   4.131   0.516  0.0835  0.4637  0.1333
13076SOL    HW140669   0.614   4.095   0.604 -0.5243  1.4762  0.4715
13076SOL    HW240670   0.609   4.058   0.457  0.1728 -0.1360  0.8286
13077SOL     OW40671   1.058   3.471   0.842  0.3012  0.2209  0.0822
13077SOL    HW140672   1.074   3.379   0.862  0.3414 -0.1353 -1.4849
13077SOL    HW240673   1.128   3.518   0.886  2.5771 -0.8500 -2.1723
13078SOL     OW40674   6.559   4.327   2.037  0.5082  0.1891  0.2762
13078SOL    HW140675   6.538   4.392   2.104  2.3898  3.2055 -1.7902
13078SOL    HW240676   6.480   4.324   1.982 -0.2464 -0.6895  1.3713
13079SOL     OW40677   0.965   4.475   8.441  0.1815 -0.0590  0.1786
13079SOL    HW140678   0.972   4.385   8.410  0.2754 -0.2906  0.8479
13079SOL    HW240679   0.931   4.524   8.366  0.0028 -0.6733 -0.1491
13080SOL     OW40680   5.699   3.742   3.082 -0.2822 -0.4453  0.2082
13080SOL    HW140681   5.722   3.814   3.023  0.3679  0.4215  1.4689
13080SOL    HW240682   5.674   3.670   3.024 -0.1072  0.5173 -1.1008
13081SOL     OW40683   4.860   2.439   7.560 -0.0724  0.4876  0.0887
13081SOL    HW140684   4.901   2.357   7.586 -2.0601 -0.4242  0.5836
13081SOL    HW240685   4.794   2.455   7.627 -0.9440  1.5385 -0.9659
13082SOL     OW40686   1.516   2.354   9.567  0.3217  0.1573 -0.2757
13082SOL    HW140687   1.497   2.266   9.535  1.4866  0.0653 -0.7520
13082SOL    HW240688   1.430   2.396   9.574 -0.0759 -0.1912 -2.4607
13083SOL     OW40689   1.361   6.671  11.125 -0.5757 -0.4519 -0.3405
13083SOL    HW140690   1.390   6.687  11.035  0.7758  0.2985  0.1980
13083SOL    HW240691   1.313   6.750  11.149  3.4634  1.8028  1.2676
13084SOL     OW40692   5.650   0.215   6.095  0.2213  0.7900 -0.2449
13084SOL    HW140693   5.709   0.289   6.110 -1.2133  1.9902 -0.2826
13084SOL    HW240694   5.628   0.220   6.002  0.5170 -0.0101 -0.3673
13085SOL     OW40695   3.832   3.777   2.181 -0.4241  0.8251  0.2161
13085SOL    HW140696   3.751   3.805   2.139 -0.9857  1.1169  1.4583
13085SOL    HW240697   3.852   3.846   2.244  0.0799  0.1268  0.8443
13086SOL     OW40698   5.170   1.676   5.701  0.2499 -0.1608 -0.4755
13086SOL    HW140699   5.170   1.745   5.634 -0.1066 -0.7336 -1.0774
13086SOL    HW240700   5.097   1.699   5.758  0.0486 -0.1095 -0.7492
13087SOL     OW40701   4.941   5.927  11.933  0.1496  0.2299 -0.0361
13087SOL    HW140702   4.987   6.006  11.905  0.3304 -0.4998 -1.9341
13087SOL    HW240703   4.858   5.930  11.886  0.0761 -0.6081  0.0211
13088SOL     OW40704   2.375   7.864   8.635 -0.0336  0.0085  0.0499
13088SOL    HW140705   2.336   7.778   8.617  0.1672  0.1035 -0.8796
13088SOL    HW240706   2.469   7.850   8.629  0.0025  0.2875 -0.0573
13089SOL     OW40707   0.339   6.927   4.154 -0.0770  0.3771  0.4103
13089SOL    HW140708   0.421   6.917   4.106 -1.0466  1.4323 -1.5637
13089SOL    HW240709   0.365   6.969   4.237  1.5836 -1.1443  0.7265
13090SOL     OW40710   7.540   6.071   4.835  0.2594  0.2905  0.3285
13090SOL    HW140711   7.566   6.017   4.909 -1.6439  0.3977  1.1536
13090SOL    HW240712   7.528   6.159   4.873 -0.7791  0.3331 -0.0509
13091SOL     OW40713   3.813   0.016   7.372 -0.6629  0.2532  0.1085
13091SOL    HW140714   3.869   0.046   7.443 -0.6490  4.3835 -1.3868
13091SOL    HW240715   3.726   0.007   7.411 -0.0943 -0.5462  1.2219
13092SOL     OW40716   6.662   7.095   8.319 -0.2582 -0.7624  0.5344
13092SOL    HW140717   6.649   7.065   8.228 -1.8786  0.5038  0.2978
13092SOL    HW240718   6.754   7.122   8.322 -0.3533 -0.1580 -0.9498
13093SOL     OW40719   5.711   1.658   3.692  0.0402  0.5740 -0.2807
13093SOL    HW140720   5.782   1.659   3.627  1.1811 -0.6617  0.9032
13093SOL    HW240721   5.711   1.747   3.728  1.1830  0.5274 -0.1168
13094SOL     OW40722   7.795   3.795   7.526 -0.3951 -0.4714 -0.4674
13094SOL    HW140723   7.861   3.795   7.596 -0.8696 -0.2201 -0.0144
13094SOL    HW240724   7.716   3.828   7.568 -0.0927  2.0273 -1.6749
13095SOL     OW40725   2.869   1.074   8.892 -0.4156  0.4551 -0.3134
13095SOL    HW140726   2.889   1.114   8.976 -0.0940 -0.3487  0.0103
13095SOL    HW240727   2.842   1.146   8.836  1.1700  1.2830 -0.0713
13096SOL     OW40728   1.295   0.611   9.765  0.4346  0.5843 -0.0499
13096SOL    HW140729   1.324   0.521   9.748  0.2304  0.6507 -0.7449
13096SOL    HW240730   1.298   0.654   9.680  0.0432  1.0991  0.1931
13097SOL     OW40731   5.274   2.694   6.180  0.2420 -0.2500 -0.7581
13097SOL    HW140732   5.253   2.787   6.185  3.4803  0.5540  0.2839
13097SOL    HW240733   5.369   2.691   6.170  0.8033 -3.4204  2.9188
13098SOL     OW40734   6.595   2.125   1.952 -0.3327  0.5411 -0.6688
13098SOL    HW140735   6.505   2.135   1.983  0.3397 -2.5654  3.1285
13098SOL    HW240736   6.596   2.042   1.905  0.8240 -0.6948  1.3653
13099SOL     OW40737   3.475   6.688   4.478 -1.1541  0.3824  0.1484
13099SOL    HW140738   3.437   6.726   4.557 -1.1215  0.5373  0.0893
13099SOL    HW240739   3.552   6.742   4.460 -1.0529  0.2305  0.1191
13100SOL     OW40740   1.816   0.056   2.464  0.3892  0.2758 -0.2593
13100SOL    HW140741   1.903   0.095   2.467  1.0616 -1.1322 -0.5873
13100SOL    HW240742   1.784   0.075   2.375  1.2464 -0.9856 -0.8616
13101SOL     OW40743   6.073   0.850  10.990  0.2519 -0.2217  0.0100
13101SOL    HW140744   6.134   0.854  11.063 -0.8873  0.4089  0.9762
13101SOL    HW240745   6.062   0.942  10.964 -0.9220 -0.2317  0.4241
13102SOL     OW40746   4.401   1.585   5.402  0.4690  1.0836 -0.1256
13102SOL    HW140747   4.311   1.619   5.400  0.0629  0.1017  0.6521
13102SOL    HW240748   4.409   1.543   5.487  1.6970  1.1926 -0.1696
13103SOL     OW40749   3.956   5.247   6.744  0.0742 -0.7569  0.0978
13103SOL    HW140750   3.892   5.287   6.685  0.4776  0.4137  0.4351
13103SOL    HW240751   3.906   5.228   6.824  0.4143  1.4733  0.9029
13104SOL     OW40752   7.398   2.357   3.082 -0.0261 -0.0245 -0.4998
13104SOL    HW140753   7.485   2.349   3.120 -0.2101 -2.5566 -0.4377
13104SOL    HW240754   7.345   2.292   3.128 -1.3953 -0.0400 -1.9856
13105SOL     OW40755   5.498   4.227   1.162 -0.6583  0.2888 -0.5597
13105SOL    HW140756   5.418   4.272   1.137 -0.8138 -0.5649 -1.6541
13105SOL    HW240757   5.567   4.292   1.148 -1.1067  0.8896 -0.0176
13106SOL     OW40758   4.105   7.908  11.706 -0.1340 -0.9400 -0.0840
13106SOL    HW140759   4.032   7.925  11.648  0.8810 -1.4043 -1.5525
13106SOL    HW240760   4.064   7.890  11.791 -1.6906 -0.8524 -0.7799
13107SOL     OW40761   7.587   1.584   5.006  0.1044  0.5379  0.1012
13107SOL    HW140762   7.650   1.558   4.938 -1.6802  0.3172 -1.5485
13107SOL    HW240763   7.622   1.666   5.040  1.1352  0.5742 -0.9772
13108SOL     OW40764   7.837   6.510   2.078  0.3439 -0.2957  0.1138
13108SOL    HW140765   7.746   6.511   2.106  0.4489 -0.5332  0.4679
13108SOL    HW240766   7.886   6.540   2.154  0.7287 -1.9506  0.5649
13109SOL     OW40767   3.324   7.845   6.061 -0.6433  0.5319  0.7302
13109SOL    HW140768   3.404   7.822   6.013 -1.1525 -0.0756  0.1660
13109SOL    HW240769   3.275   7.764   6.067 -0.8412  0.7188  1.8211
13110SOL     OW40770   4.714   0.006   5.683  0.8281  0.4438  0.5391
13110SOL    HW140771   4.721  -0.007   5.777  2.3625 -0.4781  0.3495
13110SOL    HW240772   4.674  -0.075   5.650  0.2547  0.7802  0.3961
13111SOL     OW40773   6.777   4.273   5.411 -0.1086 -0.2246 -0.3771
13111SOL    HW140774   6.684   4.260   5.431  0.0203 -1.3636 -0.4467
13111SOL    HW240775   6.778   4.331   5.335 -0.8133 -0.9518 -0.9659
13112SOL     OW40776   1.269   5.670   6.064  0.1657 -0.0227  0.2328
13112SOL    HW140777   1.239   5.621   6.140 -0.6526 -0.6028 -0.4450
13112SOL    HW240778   1.251   5.613   5.989 -0.1016  0.9877 -0.5032
13113SOL     OW40779   3.600   5.116  11.362  0.4282 -0.0574 -0.4189
13113SOL    HW140780   3.556   5.061  11.298  0.3817 -0.6790  0.1390
13113SOL    HW240781   3.540   5.120  11.437  1.1238 -0.6006  0.1927
13114SOL     OW40782   4.158   6.385  11.394 -0.0175 -0.0977 -0.4864
13114SOL    HW140783   4.103   6.312  11.363 -2.3410  0.4502  1.9854
13114SOL    HW240784   4.231   6.387  11.332 -1.3619 -2.6387 -2.3764
13115SOL     OW40785   2.154   2.857   4.396  0.0946 -0.0133 -0.1612
13115SOL    HW140786   2.163   2.766   4.368  1.4118  0.2065 -0.5262
13115SOL    HW240787   2.101   2.853   4.475  0.9688 -1.2056  0.3966
13116SOL     OW40788   3.662   4.467   9.479 -0.5753  0.4478  0.0036
13116SOL    HW140789   3.735   4.466   9.418 -0.7065 -0.7841 -0.1517
13116SOL    HW240790   3.666   4.554   9.519 -1.5571  2.0141 -2.9958
13117SOL     OW40791   0.975   3.063   0.807 -0.0337  0.2093  0.1535
13117SOL    HW140792   1.044   3.129   0.812 -0.7574  1.1701 -1.4853
13117SOL    HW240793   0.935   3.063   0.894 -0.4696  2.5127  0.0175
13118SOL     OW40794   5.962   0.898   6.884 -0.2300  0.3369  0.2927
13118SOL    HW140795   5.871   0.926   6.898  0.3282  1.7502  1.2919
13118SOL    HW240796   6.015   0.969   6.920  1.2830 -0.7457  0.2913
13119SOL     OW40797   6.039   2.222   8.399  0.2810  0.3030  0.1555
13119SOL    HW140798   6.035   2.307   8.357  0.7835  0.5070  0.5134
13119SOL    HW240799   6.125   2.219   8.440 -0.1970  0.1240  1.1922
13120SOL     OW40800   2.412   2.901   7.736  0.1653 -0.2398 -0.0340
13120SOL    HW140801   2.328   2.855   7.743  0.6993 -1.2768 -0.3511
13120SOL    HW240802   2.408   2.968   7.804 -0.8984 -0.3086 -0.0136
13121SOL     OW40803   1.994   0.610   8.189  0.0058  0.3419  0.4768
13121SOL    HW140804   1.956   0.606   8.101 -2.5345  2.7818  1.3333
13121SOL    HW240805   1.957   0.535   8.234  0.3964 -0.2556 -0.1676
13122SOL     OW40806   0.153   3.178   8.666 -0.7780 -0.7559 -0.4459
13122SOL    HW140807   0.208   3.195   8.589 -0.8056 -0.9556 -0.5111
13122SOL    HW240808   0.216   3.167   8.738 -0.7926  0.8085 -0.1542
13123SOL     OW40809   5.341   4.372   5.467 -0.2554  0.3447  0.0116
13123SOL    HW140810   5.299   4.428   5.402  0.0340  0.9600  0.3555
13123SOL    HW240811   5.293   4.388   5.548  0.3499  0.7093  0.2989
13124SOL     OW40812   2.640   0.575   6.181 -0.2495  0.1258  0.0326
13124SOL    HW140813   2.648   0.663   6.217 -0.7109  0.3498 -0.3893
13124SOL    HW240814   2.554   0.575   6.138 -0.2054 -0.4954 -0.0637
13125SOL     OW40815   2.413   5.287   9.869  0.1044 -0.0931 -0.2316
13125SOL    HW140816   2.377   5.199   9.855 -1.2598  0.6089 -1.4319
13125SOL    HW240817   2.409   5.328   9.783  0.8134  1.1298  0.2974
13126SOL     OW40818   4.754   6.191   1.464  0.2063 -0.7764 -0.1127
13126SOL    HW140819   4.805   6.112   1.484  0.2105 -1.2843 -1.9371
13126SOL    HW240820   4.663   6.163   1.471  0.2087 -1.1188 -1.3361
13127SOL     OW40821   0.740   6.727  11.111  0.3273 -0.1363  0.2213
13127SOL    HW140822   0.659   6.726  11.163 -1.0009 -0.0242 -1.7364
13127SOL    HW240823   0.712   6.755  11.024  2.9006  2.5324  0.1052
13128SOL     OW40824   7.845   6.661   1.137 -0.3957  0.4126  0.9113
13128SOL    HW140825   7.840   6.587   1.197 -0.5957 -1.6954 -1.5187
13128SOL    HW240826   7.756   6.673   1.106  0.1834 -0.8959 -1.4979
13129SOL     OW40827   5.575   7.047   8.743  0.0160  0.5880 -0.5166
13129SOL    HW140828   5.631   7.029   8.819 -0.2762  0.0100 -0.4334
13129SOL    HW240829   5.538   7.133   8.761 -2.7950 -0.9079  1.7326
13130SOL     OW40830   7.245   1.594   9.664  0.1680  0.1188  0.3047
13130SOL    HW140831   7.260   1.688   9.654 -1.5528  0.2495 -1.7774
13130SOL    HW240832   7.330   1.559   9.690  0.5103  2.3899  2.7469
13131SOL     OW40833   0.048   7.245  11.740  0.3751 -0.1483  0.4159
13131SOL    HW140834   0.000   7.199  11.810  0.5897 -1.0696 -0.0227
13131SOL    HW240835  -0.019   7.268  11.676  0.3979 -0.8096  0.1382
13132SOL     OW40836   1.855   2.623   9.319 -0.0319 -0.3314  0.5501
13132SOL    HW140837   1.785   2.596   9.378 -0.2671 -0.9730 -0.0149
13132SOL    HW240838   1.883   2.709   9.352 -0.8425 -0.2331  0.9860
13133SOL     OW40839   0.724   1.973  11.740  0.7778 -0.4299  0.1335
13133SOL    HW140840   0.657   2.041  11.734  0.5426 -0.7285 -0.7298
13133SOL    HW240841   0.765   1.987  11.825 -0.2067 -0.0788  0.5621
13134SOL     OW40842   3.202   6.574   3.483  0.7034  0.1299  0.3868
13134SOL    HW140843   3.274   6.527   3.440  0.2029 -1.2572  1.0046
13134SOL    HW240844   3.244   6.643   3.533  1.5148  0.0249 -0.1417
13135SOL     OW40845   5.045   6.728   7.416 -0.4917 -0.4487 -0.2690
13135SOL    HW140846   4.996   6.672   7.356  0.4513 -1.8684  0.2358
13135SOL    HW240847   5.071   6.670   7.488 -0.2761  0.8563  0.7454
13136SOL     OW40848   0.732   2.514   7.633  0.4310 -0.1542 -0.1388
13136SOL    HW140849   0.694   2.470   7.556 -0.5329 -0.6174  0.5818
13136SOL    HW240850   0.735   2.607   7.608 -1.1749 -0.0928 -0.2548
13137SOL     OW40851   2.095   0.117   6.742  0.1184 -0.0049  0.3154
13137SOL    HW140852   2.056   0.109   6.654  0.3091  2.3608 -0.0517
13137SOL    HW240853   2.189   0.125   6.726  0.0692  1.4424  0.6178
13138SOL     OW40854   6.156   0.852   4.402 -0.4443  0.0590  0.1793
13138SOL    HW140855   6.164   0.766   4.362 -0.7118 -0.3713  1.0345
13138SOL    HW240856   6.094   0.899   4.345 -1.0616 -0.6471  0.2601
13139SOL     OW40857   5.023   4.687   2.654  0.4742 -0.0082 -0.5758
13139SOL    HW140858   5.073   4.696   2.573  0.2323  0.5053 -0.6723
13139SOL    HW240859   5.075   4.732   2.720 -0.5548  1.8790 -0.9813
13140SOL     OW40860   4.553   7.670  11.503  0.4819 -0.2303 -0.7607
13140SOL    HW140861   4.613   7.668  11.429  1.8989 -0.0576  0.3322
13140SOL    HW240862   4.515   7.757  11.501  0.9371 -0.0309 -0.9733
13141SOL     OW40863   7.785   5.974  11.872  0.6422  0.0827  0.1627
13141SOL    HW140864   7.753   5.944  11.787  0.0244  0.7974  0.1332
13141SOL    HW240865   7.805   5.893  11.920  0.0489 -0.3472 -0.2964
13142SOL     OW40866   3.564   7.515   8.763 -0.4063  0.1175  0.6387
13142SOL    HW140867   3.586   7.603   8.730 -1.2111  0.1703  0.2085
13142SOL    HW240868   3.609   7.456   8.703 -0.4136  0.2304  0.5195
13143SOL     OW40869   1.110   3.053   5.589  0.5478 -0.5416  0.3939
13143SOL    HW140870   1.142   2.968   5.619 -0.1848  0.0762  3.2055
13143SOL    HW240871   1.189   3.107   5.583  1.0439 -1.4176 -1.6205
13144SOL     OW40872   2.765   6.068  10.797  0.1420  0.3372 -0.5142
13144SOL    HW140873   2.709   6.006  10.843 -0.2954  0.2117 -1.2121
13144SOL    HW240874   2.769   6.036  10.707  0.6141  0.8408 -0.6818
13145SOL     OW40875   3.407   4.414   2.212  0.3230  0.6996 -0.0872
13145SOL    HW140876   3.370   4.357   2.145 -0.7925 -0.4888  1.4593
13145SOL    HW240877   3.501   4.394   2.212  0.5141  1.4123 -1.8786
13146SOL     OW40878   0.679   0.307   1.432 -0.1181 -0.1157  0.0751
13146SOL    HW140879   0.759   0.338   1.476 -0.2126 -0.7316  0.6897
13146SOL    HW240880   0.646   0.384   1.387  1.9104 -0.2821 -1.8708
13147SOL     OW40881   4.581   3.095   1.387  0.2422  0.1893 -0.4014
13147SOL    HW140882   4.656   3.039   1.368 -0.3176 -0.5021 -0.6258
13147SOL    HW240883   4.552   3.068   1.474 -0.2112 -0.0827 -0.6331
13148SOL     OW40884   6.184   1.322   3.500 -0.6808  0.4523 -0.2859
13148SOL    HW140885   6.133   1.287   3.574  0.0910 -0.3111 -0.0982
13148SOL    HW240886   6.268   1.344   3.539 -0.1057 -0.3932 -1.0153
13149SOL     OW40887   3.330   4.392  12.253 -0.3637 -0.8143  0.0031
13149SOL    HW140888   3.235   4.385  12.253 -0.4109 -0.3949  1.4646
13149SOL    HW240889   3.362   4.302  12.257 -0.6982 -0.9359 -0.0954
13150SOL     OW40890   6.488   3.538   5.359 -0.3008  1.0028 -0.3366
13150SOL    HW140891   6.469   3.502   5.272 -0.6606  0.6215 -0.1004
13150SOL    HW240892   6.525   3.625   5.341  2.2219 -0.1073 -1.0093
13151SOL     OW40893   0.583   0.666   7.607 -0.0896  0.4009  0.0488
13151SOL    HW140894   0.504   0.670   7.661 -0.5444 -4.0063  0.0908
13151SOL    HW240895   0.552   0.681   7.518 -0.2464  2.4030  0.4012
13152SOL     OW40896   1.338   1.673  11.946 -0.7600  0.2209 -0.1469
13152SOL    HW140897   1.352   1.758  11.904 -0.7494  0.6458  0.6918
13152SOL    HW240898   1.247   1.675  11.974 -0.4314  0.4611  0.9543
13153SOL     OW40899   3.150   6.390   6.130 -0.8870 -0.7019 -0.5186
13153SOL    HW140900   3.177   6.481   6.142 -1.2157 -0.0674 -3.7568
13153SOL    HW240901   3.232   6.341   6.127 -0.7070 -0.5833  1.1873
13154SOL     OW40902   4.345   3.544   5.558 -0.5442  0.2515  0.4684
13154SOL    HW140903   4.351   3.449   5.569 -2.7732  0.1720  1.5435
13154SOL    HW240904   4.353   3.557   5.464 -0.6663 -1.0519  0.2467
13155SOL     OW40905   1.171   4.254   1.138  0.5743 -0.2273  0.0942
13155SOL    HW140906   1.097   4.228   1.083 -1.1217 -1.0267  2.6135
13155SOL    HW240907   1.137   4.325   1.192  2.0055  0.1141  0.5868
13156SOL     OW40908   7.789   4.944   8.354 -0.0216 -0.2706  0.1576
13156SOL    HW140909   7.798   5.028   8.399 -0.3686  0.4516 -1.0780
13156SOL    HW240910   7.793   4.879   8.424  1.0834  0.7198  1.0449
13157SOL     OW40911   5.480   0.775   6.569  0.3337 -0.2958  0.2228
13157SOL    HW140912   5.421   0.779   6.644  0.2750 -0.2657  0.1750
13157SOL    HW240913   5.467   0.859   6.524  0.7018 -0.1227  0.4311
13158SOL     OW40914   4.970   2.861   3.995 -0.1597 -0.2601  0.1486
13158SOL    HW140915   4.959   2.803   3.919  3.0737  0.4077 -0.9724
13158SOL    HW240916   5.036   2.818   4.049 -0.3760  0.6461  1.1668
13159SOL     OW40917   0.788   3.111   4.997 -1.0937  0.3669  0.3555
13159SOL    HW140918   0.814   3.020   5.008 -0.5384  0.5141  0.3160
13159SOL    HW240919   0.862   3.161   5.032 -0.6052  0.8144 -1.2524
13160SOL     OW40920   6.328   2.212  11.517  0.0517  0.0975  0.4903
13160SOL    HW140921   6.263   2.150  11.486  0.2078  1.5185 -3.1556
13160SOL    HW240922   6.279   2.292  11.535  0.1818 -0.2784  2.8243
13161SOL     OW40923   5.158   5.234  10.500 -0.2390  0.0721  0.1898
13161SOL    HW140924   5.201   5.316  10.474 -0.4653 -0.3531 -1.6343
13161SOL    HW240925   5.068   5.243  10.468 -0.9964  0.0934  2.1556
13162SOL     OW40926   5.941   7.135   3.417  0.1542  0.5630  0.1680
13162SOL    HW140927   5.964   7.079   3.342  0.0796  0.6750  0.0608
13162SOL    HW240928   6.018   7.131   3.474 -0.0534 -0.0720  0.4193
13163SOL     OW40929   0.985   3.744   2.233 -0.1430  0.6573  0.0990
13163SOL    HW140930   1.022   3.695   2.160 -1.5069 -2.7309  1.4992
13163SOL    HW240931   0.890   3.739   2.220 -0.4031  0.1119  1.9637
13164SOL     OW40932   0.661   0.654  10.945  0.6525  0.1205 -0.5251
13164SOL    HW140933   0.578   0.620  10.912  1.6431 -0.4550 -2.6115
13164SOL    HW240934   0.641   0.742  10.976 -1.2228 -0.9267  1.4858
13165SOL     OW40935   0.660   6.306   5.180  0.1782  0.9502  0.2630
13165SOL    HW140936   0.584   6.270   5.226  0.8606 -0.9281 -0.0319
13165SOL    HW240937   0.644   6.401   5.180 -0.5951  0.9039  3.0032
13166SOL     OW40938   7.758   3.755  10.832  0.3743  0.4868 -0.0495
13166SOL    HW140939   7.663   3.742  10.824  0.2111  0.8621  1.1117
13166SOL    HW240940   7.792   3.667  10.852  0.1792  0.4799  0.2629
13167SOL     OW40941   6.756   5.036   5.086 -0.4401  0.1568 -0.1967
13167SOL    HW140942   6.839   4.993   5.110 -2.3854 -3.4363  0.8179
13167SOL    HW240943   6.750   5.110   5.147  1.7233  0.1845  0.0777
13168SOL     OW40944   2.463   4.787   6.748 -0.1746 -0.1510 -0.4583
13168SOL    HW140945   2.494   4.697   6.739 -1.8243 -0.7144 -0.9843
13168SOL    HW240946   2.518   4.838   6.689  0.5980 -0.8608 -0.3636
13169SOL     OW40947   3.755   1.338  10.574 -0.1550 -0.5009  0.3337
13169SOL    HW140948   3.834   1.391  10.587  0.3724 -1.4173  0.9978
13169SOL    HW240949   3.685   1.403  10.562  0.8340  0.3230 -1.3210
13170SOL     OW40950   1.235   1.512  10.575  0.2798 -0.1377 -0.1192
13170SOL    HW140951   1.149   1.546  10.550  0.0439 -1.3228 -1.0549
13170SOL    HW240952   1.234   1.510  10.670 -1.1640 -1.1032 -0.1207
13171SOL     OW40953   1.133   4.327   5.509  0.6746  0.2003  0.1028
13171SOL    HW140954   1.123   4.258   5.444  1.9249  0.6141 -0.5553
13171SOL    HW240955   1.162   4.281   5.588  2.1608  0.0112 -0.5213
13172SOL     OW40956   5.875   7.172  11.108 -0.5659 -0.5109 -0.5933
13172SOL    HW140957   5.780   7.162  11.107 -0.5007 -1.3081 -2.0745
13172SOL    HW240958   5.893   7.238  11.041 -0.0428 -0.9712 -0.9190
13173SOL     OW40959   0.905   7.220   1.990  0.3821  0.6868  0.4240
13173SOL    HW140960   0.961   7.181   2.057 -1.1684 -2.4026  0.0877
13173SOL    HW240961   0.829   7.162   1.984 -1.7652  3.3663 -0.8162
13174SOL     OW40962   6.117   1.850   1.074 -0.6225 -0.0276 -0.5964
13174SOL    HW140963   6.067   1.783   1.121 -0.2459  0.8766  1.1920
13174SOL    HW240964   6.205   1.812   1.065 -0.7325 -0.2580 -0.7070
13175SOL     OW40965   4.322   7.483   8.301 -0.6040 -0.6236 -0.2466
13175SOL    HW140966   4.311   7.529   8.384 -0.7461 -0.6500 -0.2507
13175SOL    HW240967   4.250   7.514   8.246 -1.7512 -2.1404  0.3283
13176SOL     OW40968   0.520   4.953   7.996 -0.1481  0.0154 -0.0572
13176SOL    HW140969   0.591   5.016   8.010  0.9288 -0.9424 -1.0776
13176SOL    HW240970   0.524   4.932   7.903  0.7537 -2.9604  0.5587
13177SOL     OW40971   2.240   7.421  12.366 -0.0972  0.2229 -0.1735
13177SOL    HW140972   2.311   7.363  12.337  1.8809  2.6543 -0.5981
13177SOL    HW240973   2.194   7.370  12.432  1.4835 -1.8391 -0.5344
13178SOL     OW40974   2.768   6.997   5.440  0.2949 -0.5117 -0.0843
13178SOL    HW140975   2.798   7.088   5.442  1.3456 -0.8577  0.8399
13178SOL    HW240976   2.787   6.968   5.351 -1.1304  0.4949 -0.7664
13179SOL     OW40977   5.413   0.096   4.520 -0.1225  0.0489 -0.5028
13179SOL    HW140978   5.466   0.030   4.564  1.2006  1.8359  0.7074
13179SOL    HW240979   5.388   0.055   4.437 -0.0623 -2.2522  0.5364
13180SOL     OW40980   3.349   1.268   1.155  0.3552 -0.3308 -0.6620
13180SOL    HW140981   3.411   1.239   1.087 -0.2503  0.4572 -1.5846
13180SOL    HW240982   3.314   1.351   1.121 -0.7673 -0.4662  0.1178
13181SOL     OW40983   0.832   6.302  11.503  0.3442 -0.2035 -0.2112
13181SOL    HW140984   0.805   6.309  11.594  1.2370 -0.9025  0.1263
13181SOL    HW240985   0.925   6.278  11.507 -0.0466 -2.0913 -1.2818
13182SOL     OW40986   4.572   6.178   2.192 -0.8466  0.9015  0.4110
13182SOL    HW140987   4.591   6.240   2.262 -1.1574 -0.5610  1.8223
13182SOL    HW240988   4.541   6.233   2.120 -4.0324  2.2595  2.5873
13183SOL     OW40989   5.403   4.882  10.367 -0.1267 -0.5361  0.5704
13183SOL    HW140990   5.408   4.967  10.323  0.5949 -0.7009  0.3190
13183SOL    HW240991   5.370   4.822  10.301  1.2924 -0.8575  0.1078
13184SOL     OW40992   2.598   6.314   8.584  0.1006  0.2582 -0.3996
13184SOL    HW140993   2.568   6.393   8.538  0.4350 -0.3157 -1.6490
13184SOL    HW240994   2.634   6.347   8.667  0.0537  1.3987 -0.8110
13185SOL     OW40995   4.699   0.472   4.843 -0.0620 -0.2628 -0.1739
13185SOL    HW140996   4.607   0.497   4.833  0.0352 -0.0591 -0.5814
13185SOL    HW240997   4.748   0.548   4.813  0.2323 -0.7691 -1.0231
13186SOL     OW40998   5.697   3.285  10.147  0.1078 -0.3561 -0.3043
13186SOL    HW140999   5.758   3.251  10.212 -0.2114 -0.0939  0.1384
13186SOL    HW241000   5.667   3.208  10.098 -0.8686 -0.7842  0.9042
13187SOL     OW41001   3.406   5.008   3.181 -0.0201  0.2061 -0.2285
13187SOL    HW141002   3.359   5.078   3.227 -0.0467 -0.1367  0.2807
13187SOL    HW241003   3.382   4.928   3.229 -1.6600 -0.4689 -2.0134
13188SOL     OW41004   3.325   6.808   0.175  0.5566 -0.3049  0.2216
13188SOL    HW141005   3.361   6.730   0.133 -0.4743  0.1253 -1.5661
13188SOL    HW241006   3.231   6.805   0.154  0.5135  1.4523  0.0393
13189SOL     OW41007   5.403   6.325   2.638 -0.5593 -0.5839 -0.1745
13189SOL    HW141008   5.441   6.253   2.688 -0.4713  0.8213  1.9000
13189SOL    HW241009   5.407   6.400   2.697 -1.1710  1.0058 -2.0491
13190SOL     OW41010   6.385   2.062   1.329 -0.0603  0.1030  0.3197
13190SOL    HW141011   6.430   2.145   1.318 -1.3180  0.5768 -1.8393
13190SOL    HW241012   6.452   1.996   1.311  0.4604  0.6996  0.0142
13191SOL     OW41013   1.901   0.965   5.692 -0.4820  0.5242 -0.3298
13191SOL    HW141014   1.980   1.019   5.693 -1.3063  1.7667  0.3252
13191SOL    HW241015   1.870   0.966   5.783 -0.7876 -0.6738 -0.3981
13192SOL     OW41016   0.181   2.699   8.808  0.6182 -0.4402 -0.1488
13192SOL    HW141017   0.163   2.621   8.756 -0.4171 -0.3894  0.1215
13192SOL    HW241018   0.138   2.771   8.761  0.4224 -0.2516  0.3054
13193SOL     OW41019   1.387   1.735   5.027  0.4089  0.1777  0.7008
13193SOL    HW141020   1.406   1.818   5.071 -0.9620  0.1310  1.4278
13193SOL    HW241021   1.373   1.672   5.097  0.1632 -0.3709  0.1737
13194SOL     OW41022   0.456   6.629   9.341  0.3047  0.3977  0.0255
13194SOL    HW141023   0.545   6.638   9.375  0.4190  0.0900 -0.1902
13194SOL    HW241024   0.422   6.719   9.338 -0.9740  0.2853  4.2527
13195SOL     OW41025   1.866   3.046   7.083  0.4500  0.4827 -0.7471
13195SOL    HW141026   1.808   2.970   7.081 -0.7509  1.3668 -0.6035
13195SOL    HW241027   1.941   3.021   7.028  1.0612 -1.5325  0.8691
13196SOL     OW41028   1.225   7.151   5.779 -0.0200 -0.3327  0.1607
13196SOL    HW141029   1.130   7.161   5.778  0.1350  1.6348  0.9143
13196SOL    HW241030   1.241   7.067   5.735 -1.9691  0.3574 -2.0517
13197SOL     OW41031   2.682   1.233   4.708  0.5707  0.3992  0.2307
13197SOL    HW141032   2.759   1.202   4.755  2.1438  0.4748 -2.1465
13197SOL    HW241033   2.682   1.184   4.626 -1.5857  0.8557 -0.1281
13198SOL     OW41034   7.696   4.664  11.174  0.3047  0.5150 -0.5238
13198SOL    HW141035   7.789   4.655  11.195  0.3558  0.4611 -0.7693
13198SOL    HW241036   7.651   4.651  11.258  0.5050  0.3051 -0.4472
13199SOL     OW41037   5.825   1.365   6.142 -0.6552  0.0794  0.4053
13199SOL    HW141038   5.878   1.421   6.085  0.3862  0.4225  1.6675
13199SOL    HW241039   5.822   1.281   6.097 -0.5766  0.5764 -0.5550
13200SOL     OW41040   5.124   0.367   8.227 -0.2897  0.0692  0.1044
13200SOL    HW141041   5.196   0.310   8.200 -0.5614 -0.2804  0.1127
13200SOL    HW241042   5.047   0.328   8.187 -0.4502  0.5495 -0.0582
13201SOL     OW41043   3.220   0.892   1.124  0.5237 -0.4913 -0.1659
13201SOL    HW141044   3.138   0.862   1.163  0.7847 -1.7111 -0.5412
13201SOL    HW241045   3.193   0.950   1.053 -0.0046 -0.6904 -0.1306
13202SOL     OW41046   2.548   7.912   4.731  0.1767  0.0825  0.7128
13202SOL    HW141047   2.459   7.931   4.701  0.5052 -0.4490 -0.7017
13202SOL    HW241048   2.599   7.987   4.700  0.7017 -0.9358 -1.0581
13203SOL     OW41049   3.416   7.049  12.210 -0.1992  0.6870 -0.3236
13203SOL    HW141050   3.461   7.133  12.204  0.4394  0.4079  0.4048
13203SOL    HW241051   3.393   7.041  12.303  1.7211 -0.9215  0.0878
13204SOL     OW41052   2.282   4.260   5.330 -0.0263  0.0510  0.4204
13204SOL    HW141053   2.329   4.177   5.321 -1.5131 -0.7411 -0.5320
13204SOL    HW241054   2.250   4.279   5.241 -2.1843  0.0970  1.1427
13205SOL     OW41055   5.089   5.520   4.774  0.2737  0.0469 -0.1467
13205SOL    HW141056   5.104   5.612   4.754  1.3517  0.3406  1.8890
13205SOL    HW241057   5.176   5.482   4.781 -0.1518 -1.4088 -1.9569
13206SOL     OW41058   2.357   1.869   9.932 -0.5645  0.4979  0.2293
13206SOL    HW141059   2.434   1.892   9.984  0.1981 -0.6990 -0.3311
13206SOL    HW241060   2.377   1.898   9.843 -1.6323  2.0210  0.4412
13207SOL     OW41061   6.310   3.279   1.290 -0.0695  0.0684  0.2045
13207SOL    HW141062   6.226   3.322   1.308 -1.0204 -1.2802 -0.7487
13207SOL    HW241063   6.293   3.227   1.211  1.3014 -1.2214  0.7214
13208SOL     OW41064   0.665   4.882  10.333 -0.1927 -0.4452  0.0914
13208SOL    HW141065   0.572   4.892  10.311 -0.2056  3.4847  1.2123
13208SOL    HW241066   0.711   4.906  10.252 -0.0633 -2.4584 -0.4846
13209SOL     OW41067   7.404   4.803   7.030  0.1603  0.3209 -0.0943
13209SOL    HW141068   7.353   4.772   6.955  1.4103 -0.9885 -0.4613
13209SOL    HW241069   7.495   4.795   7.001  0.6124  2.3296  0.6271
13210SOL     OW41070   6.373   5.388   2.403  0.0739 -0.0546  0.1267
13210SOL    HW141071   6.349   5.434   2.483 -1.7423  0.2815 -0.5544
13210SOL    HW241072   6.292   5.386   2.352  1.1055 -0.5488 -1.5585
13211SOL     OW41073   6.053   0.209   4.064  0.1929 -0.3577  0.1633
13211SOL    HW141074   6.089   0.289   4.103 -0.0498 -0.1122 -0.1070
13211SOL    HW241075   5.992   0.175   4.130  1.7437 -1.4156  1.1211
13212SOL     OW41076   5.533   0.404   0.958  0.4740 -0.1461 -0.6858
13212SOL    HW141077   5.444   0.411   0.994  0.3446 -0.4914 -0.9234
13212SOL    HW241078   5.520   0.363   0.872  0.8260  0.1717 -0.8924
13213SOL     OW41079   3.749   1.089  12.347  0.0280 -0.0099 -0.5543
13213SOL    HW141080   3.669   1.092  12.399 -0.2880 -0.0193 -1.0345
13213SOL    HW241081   3.775   0.996  12.348  0.7237  0.1802  0.6285
13214SOL     OW41082   0.285   5.028   7.659  0.1894 -0.0979  0.7576
13214SOL    HW141083   0.219   4.977   7.706 -2.3411  1.4224 -0.8444
13214SOL    HW241084   0.323   5.086   7.725 -1.7355  0.5092  1.4154
13215SOL     OW41085   5.233   6.955   0.746 -0.5566  0.2047 -0.5537
13215SOL    HW141086   5.230   6.910   0.661  1.4497  0.1418 -0.6440
13215SOL    HW241087   5.265   7.043   0.725  1.3702 -0.2628  0.2427
13216SOL     OW41088   4.777   5.437   9.403  0.4866  0.5889  0.1769
13216SOL    HW141089   4.730   5.449   9.486  0.5374  0.5080  0.2184
13216SOL    HW241090   4.853   5.384   9.427  0.6121  0.7417  0.1162
13217SOL     OW41091   5.955   2.004   9.224 -0.2154  0.1426 -0.0326
13217SOL    HW141092   5.928   2.078   9.171  0.9307 -0.3507 -1.3691
13217SOL    HW241093   5.899   1.932   9.195  0.1642 -0.0404 -0.3148
13218SOL     OW41094   7.053   5.992   2.585  0.5741  0.3601 -0.3231
13218SOL    HW141095   6.991   6.044   2.535  2.6740  1.9494 -1.4297
13218SOL    HW241096   7.013   5.983   2.671 -1.1362  1.3697 -0.9671
13219SOL     OW41097   3.987   3.879  11.532  0.4300 -0.7604  0.2897
13219SOL    HW141098   3.939   3.810  11.487 -0.5494  0.1287 -0.0659
13219SOL    HW241099   3.976   3.956  11.478  1.6385 -0.3344  0.6055
13220SOL     OW41100   2.675   0.209   2.694 -0.3124 -0.3949 -0.1661
13220SOL    HW141101   2.745   0.153   2.660 -0.5410 -1.4357  1.0329
13220SOL    HW241102   2.685   0.291   2.645  2.3584 -0.1435  0.6397
13221SOL     OW41103   5.420   3.882   0.255  0.5973  0.1017 -0.1804
13221SOL    HW141104   5.329   3.864   0.279  0.4050  1.2150 -0.0293
13221SOL    HW241105   5.472   3.844   0.326  0.4209 -2.7020 -1.4401
13222SOL     OW41106   6.406   7.374   9.811  0.5700 -0.0434  0.5733
13222SOL    HW141107   6.491   7.340   9.782  0.9232  0.9120  0.4471
13222SOL    HW241108   6.380   7.434   9.742 -0.6073 -0.9319  0.2206
13223SOL     OW41109   4.273   5.033   4.700  0.5457 -0.3341 -0.1717
13223SOL    HW141110   4.191   5.079   4.713  0.4360 -0.8096  0.9798
13223SOL    HW241111   4.259   4.979   4.622  0.2224  0.5305 -0.7318
13224SOL     OW41112   1.620   6.874   6.701 -0.2851  0.4741 -0.4229
13224SOL    HW141113   1.711   6.844   6.694  0.0253  1.0417  0.8730
13224SOL    HW241114   1.571   6.797   6.729 -0.0947  0.3180 -0.5193
13225SOL     OW41115   0.733   2.588   3.623  0.1753  0.1307  0.4167
13225SOL    HW141116   0.755   2.633   3.705  0.2577  0.4360  0.2300
13225SOL    HW241117   0.642   2.561   3.634  0.2766 -0.0863  0.7239
13226SOL     OW41118   5.462   2.397   6.732  0.0574  0.7405 -0.4882
13226SOL    HW141119   5.528   2.405   6.663 -0.2610  3.9114 -0.5825
13226SOL    HW241120   5.390   2.454   6.703 -1.0586  0.3946  1.4044
13227SOL     OW41121   3.893   4.443  10.576  0.0187 -0.5932  0.5886
13227SOL    HW141122   3.842   4.370  10.542  1.0779  0.1796 -3.1581
13227SOL    HW241123   3.968   4.402  10.619 -0.2085 -1.7010 -0.0495
13228SOL     OW41124   5.380   1.045   4.839 -0.1675 -0.2561  0.1898
13228SOL    HW141125   5.388   1.141   4.836  2.1203 -0.4209 -0.4516
13228SOL    HW241126   5.452   1.017   4.894 -0.6402 -1.6440  0.1229
13229SOL     OW41127   2.867   2.995  10.830 -0.0979  0.2239  0.1310
13229SOL    HW141128   2.832   3.048  10.901  0.5080  1.8135 -0.7073
13229SOL    HW241129   2.862   2.905  10.862 -1.2096  0.7680  1.5781
13230SOL     OW41130   1.500   1.060   6.248  0.5552 -0.7106 -0.1902
13230SOL    HW141131   1.592   1.084   6.239  0.7903 -0.2574  2.5645
13230SOL    HW241132   1.497   0.966   6.228  1.2560 -0.3884 -1.9884
13231SOL     OW41133   2.635   2.003   6.929  0.0863  0.5387  0.1853
13231SOL    HW141134   2.665   2.060   6.859  1.8903 -1.1845 -0.5383
13231SOL    HW241135   2.575   1.942   6.886  0.6239 -0.0627  0.2728
13232SOL     OW41136   7.112   6.854   5.796 -0.0823 -0.2159  0.6424
13232SOL    HW141137   7.108   6.760   5.815 -0.9255 -0.1192  1.0101
13232SOL    HW241138   7.043   6.892   5.851 -0.9982  0.3927 -0.8618
13233SOL     OW41139   2.905   1.647  11.026 -0.2529  0.1809  0.1338
13233SOL    HW141140   2.979   1.588  11.040 -0.7181 -0.3618  0.3688
13233SOL    HW241141   2.855   1.642  11.108 -0.4935  0.6171  0.0132
13234SOL     OW41142   6.153   3.921  10.227 -0.3746 -0.1774 -0.2928
13234SOL    HW141143   6.228   3.878  10.184 -0.5917 -1.7408  0.7893
13234SOL    HW241144   6.078   3.895  10.173 -0.4325 -0.7072  0.0322
13235SOL     OW41145   2.051   2.453   4.554  0.2262 -0.0306 -0.0629
13235SOL    HW141146   2.058   2.458   4.459  2.8119 -2.6568 -0.1437
13235SOL    HW241147   2.022   2.364   4.571 -0.7111  0.5600  1.6327
13236SOL     OW41148   4.735   3.713   7.815  0.4883  0.8792 -0.5264
13236SOL    HW141149   4.759   3.626   7.848 -0.9102  1.2064  1.5103
13236SOL    HW241150   4.812   3.767   7.832  0.3505  0.6697  0.8681
13237SOL     OW41151   5.009   4.428   0.095 -0.4474 -0.0652  0.8210
13237SOL    HW141152   5.062   4.497   0.057 -0.7379 -0.7375 -0.8810
13237SOL    HW241153   5.064   4.391   0.164  2.2953 -2.0554 -2.1405
13238SOL     OW41154   4.510   2.772   8.513  0.4511 -0.1158  0.4593
13238SOL    HW141155   4.582   2.727   8.557  0.6839 -0.1616  0.0346
13238SOL    HW241156   4.532   2.865   8.518 -0.3041  0.0241  1.8356
13239SOL     OW41157   0.009   6.906   5.299  0.4977  0.4716  0.4468
13239SOL    HW141158  -0.056   6.906   5.229  0.7924 -0.3650  0.1624
13239SOL    HW241159   0.092   6.892   5.254  0.5081 -1.9015  1.1106
13240SOL     OW41160   6.289   0.116   7.330  0.4281  0.6756  0.2028
13240SOL    HW141161   6.342   0.188   7.364 -2.8657  2.9410  1.0523
13240SOL    HW241162   6.214   0.110   7.390  0.3096 -3.3043 -0.0436
13241SOL     OW41163   7.748   4.589   7.511 -0.4711 -0.6626 -0.5053
13241SOL    HW141164   7.668   4.641   7.500 -1.0117 -1.6152 -1.1597
13241SOL    HW241165   7.817   4.646   7.479 -1.2369 -0.8851 -2.7220
13242SOL     OW41166   2.244   0.795   2.056 -0.2533  0.9492  0.4221
13242SOL    HW141167   2.258   0.798   2.151  0.2887  0.5660  0.3568
13242SOL    HW241168   2.332   0.808   2.019  0.0175 -1.6738  0.0044
13243SOL     OW41169   3.975   2.279   3.971 -0.0974 -0.0054  0.4781
13243SOL    HW141170   3.936   2.364   3.995  0.0864  0.6089 -1.2363
13243SOL    HW241171   4.058   2.302   3.929 -0.4607 -0.9496 -0.8281
13244SOL     OW41172   6.189   2.646   0.136  0.7189  0.1077  0.0571
13244SOL    HW141173   6.263   2.672   0.192  1.3604  1.3538 -1.2884
13244SOL    HW241174   6.218   2.564   0.096  0.3587 -0.6625  1.3063
13245SOL     OW41175   2.475   1.083   3.841 -0.6300 -0.1563  0.5959
13245SOL    HW141176   2.504   1.109   3.929 -0.6666 -1.2285  0.9422
13245SOL    HW241177   2.385   1.113   3.836 -0.2933  0.8797  0.5055
13246SOL     OW41178   6.108   4.810   4.935  0.0243  0.3389  0.2541
13246SOL    HW141179   6.155   4.885   4.899 -0.8542  1.0321  0.5397
13246SOL    HW241180   6.089   4.834   5.025  1.1739 -0.9061  0.8607
13247SOL     OW41181   7.815   2.150   5.546  0.4756 -0.2300 -0.2467
13247SOL    HW141182   7.883   2.104   5.496  0.1521 -0.9390 -0.0486
13247SOL    HW241183   7.773   2.208   5.482  1.0394 -0.0384 -0.4474
13248SOL     OW41184   2.051   6.464  10.391  0.6642 -0.7709  0.4062
13248SOL    HW141185   2.028   6.387  10.444  0.1005 -0.0713  1.2119
13248SOL    HW241186   2.061   6.534  10.455  2.3213 -0.4076 -0.2103
13249SOL     OW41187   5.835   7.323  10.268  0.0734 -0.6694  0.2822
13249SOL    HW141188   5.822   7.251  10.329  2.0390 -0.7979  0.6130
13249SOL    HW241189   5.929   7.326  10.254 -0.1722  0.4514 -1.4408
13250SOL     OW41190   5.394   3.976   2.826  0.5281  0.6980  0.0748
13250SOL    HW141191   5.338   4.055   2.830  0.6298  0.7350  1.1366
13250SOL    HW241192   5.394   3.952   2.733 -1.4462  0.5650  0.0499
13251SOL     OW41193   0.029   1.480   5.347 -0.3324  0.2307  0.2671
13251SOL    HW141194   0.077   1.531   5.282 -0.0063 -0.1907  0.1708
13251SOL    HW241195   0.096   1.450   5.408 -0.7451  1.3251  1.2851
13252SOL     OW41196   5.625   2.655   8.079  0.0635 -0.0405  0.0374
13252SOL    HW141197   5.710   2.675   8.040  0.8284 -3.4596 -0.3813
13252SOL    HW241198   5.631   2.563   8.104 -3.5889 -0.4884 -0.1533
13253SOL     OW41199   2.387   5.825   1.421 -0.0725 -0.0957  0.2798
13253SOL    HW141200   2.387   5.919   1.436  0.2346  0.1037 -0.8539
13253SOL    HW241201   2.479   5.800   1.423  0.1687  0.2099 -2.5234
13254SOL     OW41202   2.769   1.466   2.744  0.1207 -0.0876  0.3068
13254SOL    HW141203   2.835   1.487   2.678 -0.0430 -0.7017 -0.0667
13254SOL    HW241204   2.810   1.486   2.828  0.2666  0.8864  0.0105
13255SOL     OW41205   1.703   3.957   6.955 -0.4851  0.0371 -0.7078
13255SOL    HW141206   1.741   3.889   6.900 -1.1657  0.6255 -1.9704
13255SOL    HW241207   1.613   3.929   6.969 -0.4038  0.0481 -0.1447
13256SOL     OW41208   1.872   7.656  11.253 -0.5206  0.0053 -0.5137
13256SOL    HW141209   1.811   7.636  11.325  0.4131 -2.0721 -0.2333
13256SOL    HW241210   1.919   7.734  11.283  0.3356 -1.2129  1.5146
13257SOL     OW41211   2.930   3.116   4.638  0.6610 -0.1690  0.3215
13257SOL    HW141212   2.840   3.144   4.619  0.8780  0.0965 -0.3301
13257SOL    HW241213   2.940   3.133   4.732 -0.7848 -2.5231  0.9803
13258SOL     OW41214   3.710   7.625  10.444  0.0245  0.3424 -0.1358
13258SOL    HW141215   3.794   7.611  10.489  0.6019  2.5752 -0.3759
13258SOL    HW241216   3.735   7.657  10.357 -1.0787  0.9169 -0.2591
13259SOL     OW41217   2.985   6.078   1.293  0.0561 -0.1084  0.0358
13259SOL    HW141218   2.913   6.036   1.245  0.6227  1.5562 -2.4098
13259SOL    HW241219   3.059   6.017   1.283 -0.4248 -0.8558  0.8332
13260SOL     OW41220   3.295   1.332   0.211  0.0332  0.2637 -0.1296
13260SOL    HW141221   3.314   1.425   0.227  0.8330  0.5506 -2.4199
13260SOL    HW241222   3.204   1.331   0.182  0.6310  0.6973 -2.2287
13261SOL     OW41223   1.403   7.127   3.497  0.4460 -0.4944  0.1580
13261SOL    HW141224   1.396   7.195   3.563  0.5691 -1.7299  1.4796
13261SOL    HW241225   1.497   7.118   3.481  0.4607 -0.7191  0.3715
13262SOL     OW41226   5.667   5.588   0.601  0.2851  0.4226  0.1758
13262SOL    HW141227   5.754   5.568   0.566  0.6568  1.7578  0.2896
13262SOL    HW241228   5.630   5.651   0.539 -0.5596 -0.0304  0.2004
13263SOL     OW41229   1.037   1.160  12.382  0.1550  1.1318  0.7849
13263SOL    HW141230   1.096   1.111  12.324 -0.3917  0.6548  0.6149
13263SOL    HW241231   1.086   1.238  12.406  0.3045  1.4637 -0.5290
13264SOL     OW41232   0.480   4.952  12.016 -0.1088 -0.5347 -0.9383
13264SOL    HW141233   0.556   4.929  12.069 -0.5971  0.1380  0.0911
13264SOL    HW241234   0.501   5.037  11.980  0.0004 -0.7563 -1.4011
13265SOL     OW41235   6.019   1.988   6.118 -0.2858  0.1997  0.2040
13265SOL    HW141236   5.936   2.035   6.113 -0.1288  0.3759 -0.8416
13265SOL    HW241237   6.000   1.914   6.176 -0.3833  1.8066  2.3508
13266SOL     OW41238   6.813   1.347   8.901 -0.3232 -0.0830  0.0509
13266SOL    HW141239   6.839   1.430   8.861  0.7721 -0.4252  0.0320
13266SOL    HW241240   6.730   1.367   8.945  0.5329  1.3181  1.0855
13267SOL     OW41241   4.850   5.918   1.533 -0.2229 -0.0303 -0.7182
13267SOL    HW141242   4.830   5.859   1.606 -0.6515  0.7094 -0.2288
13267SOL    HW241243   4.816   5.873   1.456  0.5581 -0.9920 -0.5229
13268SOL     OW41244   3.520   2.528   9.593 -0.5135 -0.6766  0.5139
13268SOL    HW141245   3.425   2.531   9.606 -0.5358  0.7665  0.2110
13268SOL    HW241246   3.545   2.619   9.579  0.7845 -1.1477 -0.4205
13269SOL     OW41247   7.090   4.544   8.912 -0.2348  0.4022  0.0758
13269SOL    HW141248   7.091   4.449   8.925 -0.6305  0.2147 -1.1335
13269SOL    HW241249   7.024   4.558   8.845 -0.2441  1.5543  0.3064
13270SOL     OW41250   4.322   6.785  11.762 -0.2946 -0.2597 -0.0747
13270SOL    HW141251   4.350   6.846  11.695 -0.7995  0.5673  0.4429
13270SOL    HW241252   4.264   6.724  11.717 -0.8499  0.4555 -0.3532
13271SOL     OW41253   2.185   3.500   4.654 -0.1149 -0.6298 -0.1481
13271SOL    HW141254   2.254   3.480   4.718  0.2096 -1.1591 -0.6503
13271SOL    HW241255   2.115   3.539   4.706  0.1894 -0.9466  0.5178
13272SOL     OW41256   6.165   5.315   7.668  0.0070  0.0051 -0.1836
13272SOL    HW141257   6.147   5.389   7.725 -0.8183 -0.2374 -0.1179
13272SOL    HW241258   6.230   5.263   7.716 -0.1276  0.1859  0.2004
13273SOL     OW41259   2.750   0.373   6.006  0.1289 -0.1129 -0.3451
13273SOL    HW141260   2.703   0.432   6.065  0.3662  0.6563 -0.9067
13273SOL    HW241261   2.730   0.285   6.039 -1.3212  0.2151 -0.2897
13274SOL     OW41262   7.560   1.616   2.091 -0.3571  0.3048 -0.7587
13274SOL    HW141263   7.576   1.576   2.177 -4.5913  0.2502  0.2166
13274SOL    HW241264   7.545   1.709   2.110  1.4413  0.8920 -1.9275
13275SOL     OW41265   3.401   2.909   0.340 -0.2741 -0.7093 -0.0935
13275SOL    HW141266   3.480   2.909   0.286 -0.3379 -1.8965 -0.2224
13275SOL    HW241267   3.330   2.930   0.280 -0.3255 -1.8717 -0.4716
13276SOL     OW41268   5.131   5.375   7.113  0.7284 -0.1492  0.1633
13276SOL    HW141269   5.184   5.396   7.190 -0.7312  0.3193  1.0823
13276SOL    HW241270   5.152   5.444   7.050  0.7831  0.3785  0.7436
13277SOL     OW41271   7.429   2.442   8.481 -0.1593 -0.1030 -0.2548
13277SOL    HW141272   7.424   2.508   8.550  1.5799  0.6660 -0.8079
13277SOL    HW241273   7.410   2.489   8.400  1.0191 -0.2622 -0.6500
13278SOL     OW41274   5.493   2.970   0.114  0.0776  0.6098 -0.1495
13278SOL    HW141275   5.485   2.889   0.164  0.3085  1.1586  0.7969
13278SOL    HW241276   5.587   2.986   0.108  0.0149  1.4821  0.8200
13279SOL     OW41277   4.515   5.199   9.839 -0.4524  0.4202 -0.3543
13279SOL    HW141278   4.485   5.151   9.761 -0.2527 -1.4363  0.6608
13279SOL    HW241279   4.603   5.229   9.816  1.0286 -3.0274  0.2354
13280SOL     OW41280   6.907   6.008   9.084  0.5882  0.4516 -0.0386
13280SOL    HW141281   6.939   5.989   9.172  1.6154  1.3921 -0.1807
13280SOL    HW241282   6.822   5.964   9.079  0.4033  0.5801  1.4979
13281SOL     OW41283   0.528   1.529   3.522 -0.3269  0.0286  0.1941
13281SOL    HW141284   0.436   1.519   3.499 -0.6209 -1.4067  1.7911
13281SOL    HW241285   0.567   1.444   3.503  0.3755  0.2039  0.8053
13282SOL     OW41286   6.809   1.324   5.241  0.3561  0.0978 -0.1476
13282SOL    HW141287   6.808   1.371   5.324 -0.1033  0.7047 -0.4877
13282SOL    HW241288   6.726   1.348   5.199  0.7441  0.0908 -0.9369
13283SOL     OW41289   2.189   4.826   0.368 -0.2189 -0.4089  0.2270
13283SOL    HW141290   2.103   4.838   0.409 -0.7188 -0.9458 -0.6447
13283SOL    HW241291   2.194   4.733   0.348 -0.1508 -0.1053 -1.2673
13284SOL     OW41292   4.313   4.386   2.214  0.0387  0.1616  0.4573
13284SOL    HW141293   4.270   4.470   2.231  0.1639  0.3472 -0.1291
13284SOL    HW241294   4.404   4.399   2.242 -0.3915 -0.4258  2.2938
13285SOL     OW41295   3.971   4.098   7.086  0.3141  0.8259 -0.4051
13285SOL    HW141296   4.029   4.111   7.160  1.2441  2.2478 -1.3430
13285SOL    HW241297   3.906   4.168   7.093 -0.4996  0.0721 -0.1343
13286SOL     OW41298   6.578   7.037  11.171 -0.8060  0.0223 -0.4092
13286SOL    HW141299   6.525   7.041  11.250  0.4555  0.3055  0.4404
13286SOL    HW241300   6.656   7.088  11.190  0.9463 -2.3323 -0.7007
13287SOL     OW41301   2.032   6.800   3.838  0.2136 -0.3067 -0.4700
13287SOL    HW141302   2.114   6.838   3.869  0.2702 -0.1222 -0.8442
13287SOL    HW241303   2.004   6.742   3.909 -0.7419  1.6725  0.8761
13288SOL     OW41304   3.646   5.786  11.087  0.2314 -0.0564  0.6040
13288SOL    HW141305   3.692   5.787  11.003 -1.4035  0.5151 -0.3263
13288SOL    HW241306   3.564   5.740  11.069 -0.0286 -0.1816  1.9743
13289SOL     OW41307   0.609   6.350   4.652  0.5847 -0.0549  0.2270
13289SOL    HW141308   0.688   6.382   4.694  0.1838 -0.4824  1.3426
13289SOL    HW241309   0.639   6.313   4.569  1.5172 -0.0049  0.5325
13290SOL     OW41310   7.517   2.065  10.367  0.3004 -0.3818  0.3423
13290SOL    HW141311   7.546   1.983  10.409  1.2198 -0.1961  0.0923
13290SOL    HW241312   7.479   2.116  10.439 -0.2879 -1.0222  0.4994
13291SOL     OW41313   5.767   3.530   1.827 -0.5793 -0.2415  0.1225
13291SOL    HW141314   5.853   3.543   1.867 -0.2998 -0.1360 -0.5065
13291SOL    HW241315   5.761   3.436   1.813 -0.0741 -0.1387 -0.8927
13292SOL     OW41316   4.046   0.557   2.646 -0.1109 -0.2510  0.3110
13292SOL    HW141317   4.071   0.624   2.583 -0.3258 -0.3748  0.0921
13292SOL    HW241318   4.051   0.601   2.731  1.6298 -0.4879  0.3652
13293SOL     OW41319   5.166   0.555  10.129 -0.1546  0.1291  0.5128
13293SOL    HW141320   5.143   0.584  10.041  1.2760  2.1675  0.7449
13293SOL    HW241321   5.234   0.616  10.157  0.3802 -1.3063  2.5251
13294SOL     OW41322   0.598   4.948   3.348  0.1490 -0.5220  0.0063
13294SOL    HW141323   0.644   4.955   3.432 -0.4713 -0.1649  0.3258
13294SOL    HW241324   0.613   5.033   3.306 -1.3184  0.1170  0.7015
13295SOL     OW41325   0.528   2.682   5.813  0.1363 -0.1008  0.4621
13295SOL    HW141326   0.504   2.604   5.762  1.0020 -0.6828  0.9389
13295SOL    HW241327   0.478   2.752   5.772 -2.6199 -1.2743  1.5587
13296SOL     OW41328   1.924   1.882   6.615 -0.1544 -0.0678 -0.2794
13296SOL    HW141329   2.014   1.886   6.647 -0.2857  0.0801  0.0837
13296SOL    HW241330   1.899   1.790   6.623 -0.4328  0.0827  0.7676
13297SOL     OW41331   0.489   4.593   9.084 -0.5516  0.4756  0.0660
13297SOL    HW141332   0.533   4.573   9.166 -0.1968  2.6146  0.4543
13297SOL    HW241333   0.491   4.511   9.035  0.0505 -0.5979  1.8026
13298SOL     OW41334   6.563   0.114   4.750  0.2764  0.4105  0.0588
13298SOL    HW141335   6.511   0.136   4.828 -1.1678  1.1609 -1.0656
13298SOL    HW241336   6.617   0.192   4.735 -0.0060  0.5720 -0.1257
13299SOL     OW41337   4.083   5.718   2.086 -0.3541  0.2979  0.3876
13299SOL    HW141338   4.053   5.807   2.106  2.2872  0.9158  1.9311
13299SOL    HW241339   4.155   5.730   2.024  0.0637 -0.7771  0.6463
13300SOL     OW41340   5.003   4.739   2.371 -0.1739 -0.2447  0.7252
13300SOL    HW141341   4.919   4.784   2.378 -0.0735  0.1475 -0.3783
13300SOL    HW241342   4.988   4.673   2.303  0.0848 -0.9448  1.3406
13301SOL     OW41343   1.362   5.067   5.139 -0.0489 -0.2114 -0.5690
13301SOL    HW141344   1.356   4.975   5.112 -0.3392 -0.5827  0.6876
13301SOL    HW241345   1.271   5.096   5.144  0.0329  0.0654 -0.6983
13302SOL     OW41346   5.576   7.259   4.753  0.2375 -0.1248  0.8364
13302SOL    HW141347   5.605   7.190   4.693 -0.4478 -0.6185  1.0582
13302SOL    HW241348   5.584   7.220   4.840 -0.2432  0.0445  0.9580
13303SOL     OW41349   3.695   2.215   6.240 -0.2299  0.0399 -0.4325
13303SOL    HW141350   3.758   2.195   6.308 -1.3987 -0.5174  0.5189
13303SOL    HW241351   3.647   2.291   6.272 -0.5521 -0.0035 -0.7973
13304SOL     OW41352   4.413   3.514   8.496  0.1673 -0.2324  0.4810
13304SOL    HW141353   4.337   3.480   8.448  0.9063 -1.0366 -0.1397
13304SOL    HW241354   4.471   3.439   8.506  1.9257  0.8501 -1.0607
13305SOL     OW41355   5.814   7.728   1.025  0.1872 -0.0294 -0.4533
13305SOL    HW141356   5.880   7.661   1.039  1.3304  0.7704 -1.7561
13305SOL    HW241357   5.816   7.782   1.104  1.2654  0.1243 -0.5796
13306SOL     OW41358   6.837   7.309   7.694 -0.0629 -0.5950  0.1955
13306SOL    HW141359   6.829   7.397   7.730  0.0046 -0.0706 -1.0198
13306SOL    HW241360   6.784   7.255   7.752 -1.2296  0.4839  0.1775
13307SOL     OW41361   5.637   1.418   4.736  0.3641 -0.4599  0.1675
13307SOL    HW141362   5.705   1.438   4.671 -0.5646  0.9987 -0.4246
13307SOL    HW241363   5.597   1.503   4.755 -2.2868 -1.4077 -0.6391
13308SOL     OW41364   5.955   6.043   8.294  0.4060 -0.2442  0.0643
13308SOL    HW141365   5.889   6.099   8.252  0.5823 -1.0255 -1.3016
13308SOL    HW241366   6.000   6.101   8.356 -0.2750  0.7851 -0.3816
13309SOL     OW41367   2.004   6.259  10.554  0.1989 -0.1594  0.6107
13309SOL    HW141368   1.999   6.171  10.516 -0.9554 -0.5629  1.6276
13309SOL    HW241369   2.098   6.280  10.556  0.4068 -0.8574 -0.7411
13310SOL     OW41370   3.311   1.509   6.829  0.5285  0.4915 -0.0084
13310SOL    HW141371   3.221   1.503   6.860  0.5729 -3.8642 -0.0867
13310SOL    HW241372   3.303   1.524   6.734 -0.1642 -0.2511 -0.0798
13311SOL     OW41373   4.271   6.349   2.605 -0.1130 -0.4907  0.7332
13311SOL    HW141374   4.363   6.369   2.619 -0.3629  1.7239 -0.2970
13311SOL    HW241375   4.265   6.325   2.512 -0.3896 -2.0270  1.1239
13312SOL     OW41376   5.725   3.431   6.243 -0.1794 -0.0060 -0.1503
13312SOL    HW141377   5.764   3.501   6.191  0.3354  0.1619  0.4523
13312SOL    HW241378   5.749   3.451   6.333 -0.7573 -0.4884  0.1253
13313SOL     OW41379   0.375   5.409   0.477  0.6784 -1.1802 -0.9418
13313SOL    HW141380   0.438   5.472   0.439 -1.0211  0.0061 -1.9322
13313SOL    HW241381   0.427   5.359   0.539  2.0968  1.4136  0.1435
13314SOL     OW41382   7.147   4.362   6.719  0.2679 -0.0119 -0.8955
13314SOL    HW141383   7.175   4.323   6.636 -0.2108  0.2601 -1.1894
13314SOL    HW241384   7.210   4.433   6.734  0.6998 -0.4243 -0.7299
13315SOL     OW41385   2.389   2.684   3.945  0.1283 -0.2234  0.7476
13315SOL    HW141386   2.437   2.625   3.886  0.5124 -0.8440  1.6713
13315SOL    HW241387   2.441   2.764   3.947 -0.4356  0.2064 -0.5756
13316SOL     OW41388   0.085   2.773   2.426 -0.1196 -0.0315 -0.3817
13316SOL    HW141389   0.048   2.689   2.454  1.5876 -1.1729 -1.3449
13316SOL    HW241390   0.139   2.802   2.499 -1.1817  0.5765  0.1917
13317SOL     OW41391   5.722   0.925   5.535  0.1586 -0.0980  0.1375
13317SOL    HW141392   5.739   1.015   5.561 -0.2048  0.2450 -0.7626
13317SOL    HW241393   5.729   0.926   5.439  0.0060 -0.9921  0.1054
13318SOL     OW41394   4.659   3.666   0.134 -0.2993  0.4463  0.3283
13318SOL    HW141395   4.752   3.646   0.123 -0.4242 -0.1270  0.3130
13318SOL    HW241396   4.654   3.704   0.222 -0.2774 -0.9463  0.9500
13319SOL     OW41397   5.833   2.991   2.169 -0.0933  0.1645  0.0612
13319SOL    HW141398   5.814   3.070   2.118 -0.5173  0.1684  0.2203
13319SOL    HW241399   5.837   2.921   2.104 -1.0372  0.1025  0.0549
13320SOL     OW41400   4.878   3.684   5.502 -0.0190 -0.1931  0.1561
13320SOL    HW141401   4.788   3.716   5.490  0.3691  0.8497 -0.1501
13320SOL    HW241402   4.932   3.749   5.457  0.9355 -0.5165  0.8071
13321SOL     OW41403   1.026   1.776   2.918  0.6067 -0.0655 -0.7764
13321SOL    HW141404   1.061   1.746   3.001 -1.0561 -1.2783 -0.4806
13321SOL    HW241405   0.936   1.803   2.937 -0.5264 -2.2537 -2.4752
13322SOL     OW41406   6.451   2.447   0.492 -0.1486  0.2461 -0.1400
13322SOL    HW141407   6.524   2.497   0.455 -0.2445  0.2797 -0.2856
13322SOL    HW241408   6.460   2.360   0.453  1.1064 -0.4118  1.5228
13323SOL     OW41409   4.109   4.595   6.721 -0.1715  0.4504 -0.5398
13323SOL    HW141410   4.152   4.677   6.698 -0.4680  1.2295  1.5783
13323SOL    HW241411   4.036   4.619   6.778 -0.3076 -1.2595  0.0895
13324SOL     OW41412   6.003   6.709  11.028  0.5262  0.0516 -0.6401
13324SOL    HW141413   5.913   6.709  11.061  0.3627 -0.7310 -1.0689
13324SOL    HW241414   6.033   6.799  11.042  0.3971 -0.1734  1.4378
13325SOL     OW41415   0.849   2.259   9.920 -0.2763 -0.0234 -0.2806
13325SOL    HW141416   0.798   2.205   9.980 -0.8716  1.3529  0.4948
13325SOL    HW241417   0.926   2.285   9.971  0.3834 -0.7140 -0.8938
13326SOL     OW41418   5.865   3.288   7.478  0.2107 -0.0738  0.2593
13326SOL    HW141419   5.810   3.367   7.478  0.7051  0.2863  1.2281
13326SOL    HW241420   5.943   3.314   7.527  1.7146 -0.2800 -1.9131
13327SOL     OW41421   4.433   5.916   1.880  0.4383 -0.6259  0.4353
13327SOL    HW141422   4.449   5.821   1.876 -0.3299 -0.7340 -0.9472
13327SOL    HW241423   4.344   5.926   1.846  0.1851  0.5260  1.4146
13328SOL     OW41424   7.886   1.904   2.730 -0.3097 -0.5952 -0.0276
13328SOL    HW141425   7.911   1.852   2.654 -2.0977 -0.5148 -0.7205
13328SOL    HW241426   7.807   1.861   2.764 -1.8209  1.5165 -0.5853
13329SOL     OW41427   1.798   4.035  10.422 -0.3267  0.2138  0.1218
13329SOL    HW141428   1.822   4.041  10.514  0.5688  0.8382 -0.1381
13329SOL    HW241429   1.827   4.118  10.384  0.8485 -0.6848 -1.0535
13330SOL     OW41430   4.305   0.533  10.934  0.0745 -0.5474  0.0484
13330SOL    HW141431   4.390   0.550  10.892 -0.3992 -0.4575 -0.9189
13330SOL    HW241432   4.263   0.470  10.875  0.6425 -2.9555  2.0512
13331SOL     OW41433   6.778   5.316  11.021  0.6626  0.5560 -0.1146
13331SOL    HW141434   6.783   5.285  11.112  0.0281  0.3575 -0.1391
13331SOL    HW241435   6.804   5.240  10.969 -0.7375  0.0757 -0.1666
13332SOL     OW41436   2.517   3.696   0.059  0.0737 -0.6674  0.0248
13332SOL    HW141437   2.599   3.713   0.105 -0.2610  0.2211  0.3176
13332SOL    HW241438   2.529   3.737  -0.026  0.6058 -2.1138 -0.6229
13333SOL     OW41439   7.585   2.900   2.278 -0.7694 -0.2519  0.0503
13333SOL    HW141440   7.565   2.906   2.371 -0.5043 -0.3998  0.1164
13333SOL    HW241441   7.677   2.876   2.274 -0.6863  0.1079 -0.2543
13334SOL     OW41442   2.003   4.764   2.240  0.1681 -0.5997  0.2580
13334SOL    HW141443   2.075   4.722   2.194  0.8981 -1.6271  2.2294
13334SOL    HW241444   1.949   4.692   2.273  0.0119  0.0397  1.4891
13335SOL     OW41445   7.424   4.628   2.398  1.0079 -1.2245  0.3881
13335SOL    HW141446   7.517   4.609   2.406  1.1460 -1.2938 -1.0859
13335SOL    HW241447   7.399   4.593   2.312  0.1542  0.8535 -0.2697
13336SOL     OW41448   7.090   3.248  12.213  0.0983  0.2312  0.2717
13336SOL    HW141449   7.138   3.331  12.210 -1.0989  1.1071  2.5574
13336SOL    HW241450   7.017   3.265  12.272 -1.5726 -1.7913 -1.0767
13337SOL     OW41451   2.286   1.456   0.632  0.3637 -0.9904 -0.5302
13337SOL    HW141452   2.329   1.380   0.592  0.9639 -0.1231 -1.5699
13337SOL    HW241453   2.264   1.513   0.558  1.7106  0.7680  0.3681
13338SOL     OW41454   2.468   1.033   0.310  0.2085  0.0548  0.2875
13338SOL    HW141455   2.529   0.990   0.369 -1.0290 -1.4651  0.5289
13338SOL    HW241456   2.480   0.989   0.226  0.3102  0.6049  0.0066
13339SOL     OW41457   7.653   6.880   1.268 -0.1667 -0.1648 -0.1680
13339SOL    HW141458   7.668   6.839   1.183 -1.0082 -2.4294  0.6892
13339SOL    HW241459   7.585   6.946   1.252  0.2727  0.0148 -1.3665
13340SOL     OW41460   7.798   2.315   8.224  0.4567  0.0598 -0.1123
13340SOL    HW141461   7.785   2.381   8.292  0.0735  0.0181 -0.1436
13340SOL    HW241462   7.770   2.233   8.265  2.2567 -0.3458  0.4180
13341SOL     OW41463   3.017   0.461   5.690 -0.3123  0.1139 -0.0574
13341SOL    HW141464   2.926   0.476   5.716  0.0669 -0.0440  1.4890
13341SOL    HW241465   3.037   0.532   5.629 -1.1059  0.8807  0.5425
13342SOL     OW41466   7.052   3.775   7.840 -0.3727 -0.0917  0.3121
13342SOL    HW141467   7.080   3.701   7.786  1.1069  0.9720 -0.4549
13342SOL    HW241468   6.958   3.763   7.851 -0.1767 -2.0692  0.2176
13343SOL     OW41469   3.796   6.940   4.722 -0.0167  0.2965 -0.0032
13343SOL    HW141470   3.839   6.863   4.759 -0.0513  0.7155  0.9370
13343SOL    HW241471   3.718   6.905   4.678 -1.2758 -0.0382  2.3218
13344SOL     OW41472   1.281   1.244  10.566 -0.4444 -0.3863  0.1638
13344SOL    HW141473   1.363   1.231  10.613  0.7050  1.2848 -1.2305
13344SOL    HW241474   1.262   1.337  10.577 -0.5254 -0.0995 -1.9789
13345SOL     OW41475   3.625   3.324  11.208 -0.4258 -0.0323 -0.3484
13345SOL    HW141476   3.718   3.329  11.189 -0.6005 -1.2581 -1.7513
13345SOL    HW241477   3.589   3.269  11.138 -2.1217  0.0068  0.4291
13346SOL     OW41478   6.981   7.059   9.035 -0.0677  0.1682  0.0585
13346SOL    HW141479   6.940   7.113   9.102  0.6065  1.7905 -0.7991
13346SOL    HW241480   6.914   6.993   9.014 -1.2849  1.2270  0.4774
13347SOL     OW41481   7.296   3.009   5.149 -0.8909 -0.4146 -0.0929
13347SOL    HW141482   7.316   3.068   5.077  1.6888 -1.5707 -0.4142
13347SOL    HW241483   7.216   2.964   5.122 -1.2833  0.8423 -1.1125
13348SOL     OW41484   0.951   6.028   0.893 -0.0105 -0.5048  0.0553
13348SOL    HW141485   0.981   5.995   0.808 -0.7146  1.2058 -0.8915
13348SOL    HW241486   1.011   6.099   0.914 -1.2864  0.6700 -0.1891
13349SOL     OW41487   1.103   5.133   4.792  0.6387  0.4902 -0.1925
13349SOL    HW141488   1.086   5.040   4.773  0.9889  0.3030  0.3916
13349SOL    HW241489   1.060   5.180   4.721  2.2591 -0.2075 -1.7185
13350SOL     OW41490   7.265   0.966   5.098  0.1592  0.6587  0.0576
13350SOL    HW141491   7.230   1.046   5.137 -0.0990  0.3383  0.4959
13350SOL    HW241492   7.322   0.997   5.027 -1.0330  1.1962 -0.7105
13351SOL     OW41493   1.829   2.446   7.917  0.1876 -0.0171  0.4271
13351SOL    HW141494   1.818   2.387   7.842 -0.5951 -0.8265  1.1450
13351SOL    HW241495   1.907   2.415   7.962 -1.1684 -1.6849  1.7780
13352SOL     OW41496   4.348   0.539   5.882 -0.3007  0.3770 -0.4930
13352SOL    HW141497   4.398   0.558   5.803 -0.4903  1.1878 -0.4236
13352SOL    HW241498   4.390   0.461   5.919  0.6253  0.7788 -0.6788
13353SOL     OW41499   1.616   6.623  11.976  0.4337 -0.5428 -0.6844
13353SOL    HW141500   1.546   6.604  12.038 -0.1740  1.8744 -0.5345
13353SOL    HW241501   1.695   6.590  12.019 -0.2185 -0.5761  0.5271
13354SOL     OW41502   4.109   5.475   5.043 -0.1106 -0.2073 -0.1945
13354SOL    HW141503   4.184   5.504   5.096  0.5004 -0.3887 -0.9385
13354SOL    HW241504   4.037   5.469   5.105 -0.0049  1.8618  0.2020
13355SOL     OW41505   1.418   3.833   3.362  0.9418  0.7567  0.2406
13355SOL    HW141506   1.470   3.789   3.295  1.5993 -1.7094  2.1916
13355SOL    HW241507   1.335   3.784   3.363  1.2446  0.2200  1.7038
13356SOL     OW41508   4.819   2.516   8.398  0.4430  0.9535  0.0412
13356SOL    HW141509   4.778   2.520   8.484  0.8918  2.1005  0.2119
13356SOL    HW241510   4.746   2.521   8.336 -0.0136 -1.2984  0.3171
13357SOL     OW41511   0.708   6.790   6.463 -0.0796  0.1684  0.1252
13357SOL    HW141512   0.795   6.827   6.480 -0.1980  0.3811  0.2721
13357SOL    HW241513   0.663   6.857   6.412 -0.4487  0.4206  0.7691
13358SOL     OW41514   4.143   2.952   3.322 -0.5748 -0.6762  0.4570
13358SOL    HW141515   4.169   2.886   3.258  1.6079  2.5787 -2.3607
13358SOL    HW241516   4.067   2.995   3.283  0.0236  0.5575  0.6149
13359SOL     OW41517   6.670   4.724   6.991  0.4512  0.5765 -0.3781
13359SOL    HW141518   6.645   4.647   6.940 -1.1780  0.9230 -0.1324
13359SOL    HW241519   6.665   4.695   7.082 -0.5018  1.0641 -0.2729
13360SOL     OW41520   6.118   2.915   4.300 -0.7970  0.2833  0.0699
13360SOL    HW141521   6.174   2.958   4.235 -0.1573  0.5425  0.7626
13360SOL    HW241522   6.126   2.971   4.378  0.2081 -1.1815  1.0651
13361SOL     OW41523   0.600   1.421   9.743 -0.4745  0.2923  0.3866
13361SOL    HW141524   0.677   1.440   9.797  0.0613 -0.1139 -0.2189
13361SOL    HW241525   0.592   1.496   9.685 -1.8399  1.3563  1.8833
13362SOL     OW41526   3.690   6.929   2.214 -0.5392  0.2414 -0.4617
13362SOL    HW141527   3.676   6.866   2.285  1.5482 -0.1493 -0.3560
13362SOL    HW241528   3.644   6.890   2.139  0.2687 -1.1703 -0.2627
13363SOL     OW41529   2.009   7.604   9.987  0.1136  0.0913  0.1498
13363SOL    HW141530   2.000   7.525  10.041 -0.2292  0.6005  0.8555
13363SOL    HW241531   2.088   7.646  10.018  0.6850 -0.3181 -0.7042
13364SOL     OW41532   0.598   3.573   3.287  0.7384 -0.0065  0.3635
13364SOL    HW141533   0.588   3.654   3.237 -0.1634 -0.4460 -0.2092
13364SOL    HW241534   0.670   3.590   3.347  2.2367  0.3761 -1.4542
13365SOL     OW41535   2.717   5.417   0.799 -0.4957 -0.6187  0.0818
13365SOL    HW141536   2.657   5.449   0.732 -2.5462 -1.3204  1.4585
13365SOL    HW241537   2.707   5.322   0.796  0.4098 -0.7386  0.5034
13366SOL     OW41538   0.801   2.515   2.977  0.5303 -0.0023  0.0035
13366SOL    HW141539   0.873   2.572   2.949 -1.2084  1.7696 -1.1252
13366SOL    HW241540   0.736   2.575   3.012 -0.0872 -1.6444  1.8327
13367SOL     OW41541   7.181   4.330   0.679  0.1241  0.4689  0.2265
13367SOL    HW141542   7.163   4.311   0.771 -0.2707  0.7355  0.2029
13367SOL    HW241543   7.168   4.246   0.634 -1.2452  0.6944  0.1775
13368SOL     OW41544   3.164   3.128   4.472 -0.3064  0.0363 -0.2028
13368SOL    HW141545   3.077   3.125   4.511 -0.3400  1.0246 -0.1656
13368SOL    HW241546   3.148   3.125   4.377 -0.3441 -0.3379 -0.1854
13369SOL     OW41547   0.168   7.265  10.467 -0.1997 -0.1333 -0.0456
13369SOL    HW141548   0.249   7.314  10.474 -0.1222 -0.3103  0.3694
13369SOL    HW241549   0.139   7.277  10.377  1.2347 -1.5669 -0.7426
13370SOL     OW41550   1.769   6.876   3.723  0.2909 -0.3456  0.1023
13370SOL    HW141551   1.721   6.794   3.737  0.8299 -0.6417  0.2746
13370SOL    HW241552   1.860   6.853   3.742  0.6113  0.0135 -0.9137
13371SOL     OW41553   6.142   5.611   7.488  0.1257 -0.1093 -0.7550
13371SOL    HW141554   6.182   5.596   7.402  0.1442  0.9136 -0.9317
13371SOL    HW241555   6.060   5.657   7.468  0.3789  0.5929 -0.2022
13372SOL     OW41556   2.678   4.256  12.376 -0.0566  0.4286 -0.3276
13372SOL    HW141557   2.676   4.345  12.412 -2.8058  0.4628 -0.3252
13372SOL    HW241558   2.743   4.210  12.428 -1.0197  1.5620  2.0139
13373SOL     OW41559   0.153   6.173   4.614  0.0877  0.0165 -0.0449
13373SOL    HW141560   0.214   6.101   4.630 -0.2670 -0.2225  0.2721
13373SOL    HW241561   0.199   6.231   4.554  0.7907  0.0594  0.5223
13374SOL     OW41562   6.288   1.716   7.070 -0.0046 -0.1413 -0.2667
13374SOL    HW141563   6.212   1.702   7.127 -0.5304 -1.4767 -1.2633
13374SOL    HW241564   6.321   1.802   7.097 -1.3864  0.1274  0.7252
13375SOL     OW41565   7.236   2.330   6.765  0.0821  0.0240  0.2884
13375SOL    HW141566   7.254   2.381   6.687 -2.2858 -0.0708 -0.3970
13375SOL    HW241567   7.145   2.351   6.788 -1.0754 -3.7368 -0.0455
13376SOL     OW41568   2.501   5.294  10.745 -0.5322 -0.0060  0.1088
13376SOL    HW141569   2.451   5.327  10.670 -1.0018  0.4274  0.5974
13376SOL    HW241570   2.458   5.212  10.768 -0.0647 -0.4022 -0.4115
13377SOL     OW41571   7.101   6.441   9.614  0.0803 -0.3872 -0.3297
13377SOL    HW141572   7.192   6.440   9.584 -0.4305 -0.7383 -1.9517
13377SOL    HW241573   7.079   6.350   9.631  0.0550 -0.2877  0.2246
13378SOL     OW41574   6.264   0.276   9.086  0.9681 -0.1124  0.4183
13378SOL    HW141575   6.296   0.243   9.003  0.7521 -0.1572  0.3531
13378SOL    HW241576   6.327   0.344   9.111  0.9562 -0.0041  0.1538
13379SOL     OW41577   7.631   5.022   9.267 -0.3029  0.2411 -0.8447
13379SOL    HW141578   7.599   5.030   9.177  0.3589  1.4354 -1.0045
13379SOL    HW241579   7.725   5.003   9.258 -0.6163 -1.7100 -0.3886
13380SOL     OW41580   2.704   6.818  11.847  0.1474 -0.1286  0.4316
13380SOL    HW141581   2.636   6.758  11.878  0.1818 -0.5277 -0.2390
13380SOL    HW241582   2.760   6.763  11.792  0.2468  0.4961 -0.0972
13381SOL     OW41583   1.048   7.291   1.763  0.6672 -0.2088 -0.0576
13381SOL    HW141584   0.990   7.354   1.719 -1.0330 -1.8939 -0.3314
13381SOL    HW241585   1.006   7.274   1.847  2.2986  0.6445  0.9867
13382SOL     OW41586   4.479   5.675   9.953 -0.6567 -0.5222 -0.4381
13382SOL    HW141587   4.501   5.642   9.866  1.8507  0.6661 -0.3705
13382SOL    HW241588   4.506   5.605  10.013 -1.1660 -0.8252 -0.5644
13383SOL     OW41589   5.550   5.288  10.704 -0.4959 -0.1637  0.4576
13383SOL    HW141590   5.605   5.215  10.674 -2.0295 -0.4029 -2.0923
13383SOL    HW241591   5.467   5.246  10.728 -1.2927  0.6781 -0.7498
13384SOL     OW41592   0.957   1.762   1.837 -0.1782 -0.6917  0.4704
13384SOL    HW141593   1.027   1.730   1.781  1.0981 -0.4175  1.8396
13384SOL    HW241594   0.896   1.805   1.778  1.1957 -0.2567 -0.6910
13385SOL     OW41595   4.411   1.411   3.109  0.2264 -0.8916  0.0456
13385SOL    HW141596   4.420   1.474   3.037  0.7383 -1.6852 -0.6032
13385SOL    HW241597   4.360   1.339   3.071  0.6220 -1.3843  0.4352
13386SOL     OW41598   5.021   2.981  10.306  0.6534 -0.6990 -0.0253
13386SOL    HW141599   5.030   2.925  10.383  2.2372  1.1478  1.2345
13386SOL    HW241600   4.928   3.000  10.300  0.1373 -3.0169 -0.2292
13387SOL     OW41601   0.778   5.461   3.947 -0.4864 -0.1033 -0.5070
13387SOL    HW141602   0.782   5.556   3.952 -0.3759 -0.1342  0.0190
13387SOL    HW241603   0.869   5.433   3.939 -0.5759 -0.1207 -1.6251
13388SOL     OW41604   1.790   3.011  11.560  0.1173 -0.0875  0.2111
13388SOL    HW141605   1.794   2.921  11.526  3.9954  0.2231 -0.5901
13388SOL    HW241606   1.840   3.008  11.642 -1.5265  0.9836  1.3113
13389SOL     OW41607   5.192   5.402   8.903 -0.2594 -0.7305  0.1905
13389SOL    HW141608   5.256   5.413   8.833 -0.3919 -2.8887 -0.3258
13389SOL    HW241609   5.242   5.364   8.976 -0.6387 -0.9616  0.3337
13390SOL     OW41610   2.637   7.684   6.950  0.1475  0.1923  0.0127
13390SOL    HW141611   2.648   7.644   6.864 -1.5154  0.8300 -0.5366
13390SOL    HW241612   2.616   7.611   7.008  0.4037 -0.1312 -0.2963
13391SOL     OW41613   4.439   3.824  11.762  0.1005 -0.2844 -0.2994
13391SOL    HW141614   4.451   3.888  11.692  0.1105  3.0985  2.4960
13391SOL    HW241615   4.525   3.820  11.806 -0.1622 -1.5395  0.1443
13392SOL     OW41616   1.756   3.779   3.032 -0.0902  0.2479 -0.0482
13392SOL    HW141617   1.831   3.760   3.088 -0.3223 -0.8072 -0.0900
13392SOL    HW241618   1.712   3.853   3.076  1.3357  1.3523 -0.3940
13393SOL     OW41619   1.088   1.640   9.970 -0.3225  0.8135 -0.1828
13393SOL    HW141620   1.097   1.582  10.046  0.0535  3.1578  1.6508
13393SOL    HW241621   1.173   1.634   9.926  0.3989  1.3886  1.0881
13394SOL     OW41622   7.684   2.227   3.676  0.4828 -0.1038  0.5288
13394SOL    HW141623   7.739   2.243   3.600  2.7378  0.3942  2.1690
13394SOL    HW241624   7.731   2.267   3.749 -1.7934 -0.1771  2.1464
13395SOL     OW41625   2.176   1.044  11.762  0.3137  0.0215 -0.0125
13395SOL    HW141626   2.256   1.073  11.804 -0.0960  0.2420  0.6258
13395SOL    HW241627   2.109   1.106  11.791  0.2529  0.9801 -2.0341
13396SOL     OW41628   1.151   3.029  11.339  0.0019 -0.0433  0.4414
13396SOL    HW141629   1.090   3.051  11.269 -2.0452  0.2782  2.2129
13396SOL    HW241630   1.196   2.950  11.308 -2.1803 -0.9968 -0.4949
13397SOL     OW41631   6.089   7.278   8.713  0.4844  0.0492  0.0159
13397SOL    HW141632   6.034   7.306   8.640  0.4092 -0.9137 -0.3080
13397SOL    HW241633   6.164   7.235   8.672 -0.1424 -1.5713  0.5176
13398SOL     OW41634   5.479   1.229   6.563  0.4062  0.5133  0.9096
13398SOL    HW141635   5.469   1.135   6.551  0.5759  0.4843  0.9911
13398SOL    HW241636   5.462   1.244   6.655 -3.3560  1.0656  0.2617
13399SOL     OW41637   2.205   5.380  10.055 -0.7418 -0.0449  0.3144
13399SOL    HW141638   2.146   5.418   9.990  1.1163  1.2921 -0.6863
13399SOL    HW241639   2.281   5.352  10.004  0.4022  0.2489  1.8012
13400SOL     OW41640   2.985   2.977   9.238 -0.4382 -0.1038 -0.5374
13400SOL    HW141641   3.074   2.943   9.248 -0.4852  0.1728  1.0719
13400SOL    HW241642   2.989   3.034   9.161  1.4947  2.0500  1.0236
13401SOL     OW41643   5.232   4.337   9.757 -0.0999 -0.2593 -0.0943
13401SOL    HW141644   5.234   4.432   9.765  1.0916 -0.3085  0.3238
13401SOL    HW241645   5.308   4.307   9.806  0.5662 -1.3241 -1.6943
13402SOL     OW41646   5.209   2.085   1.264 -0.2827 -0.2045 -0.1215
13402SOL    HW141647   5.191   1.997   1.230 -0.5453  0.0882 -0.7689
13402SOL    HW241648   5.292   2.109   1.224 -1.0058  0.4791 -1.2695
13403SOL     OW41649   6.572   3.498   9.763 -0.1850 -0.7968 -0.3019
13403SOL    HW141650   6.573   3.594   9.753 -2.6987 -0.6519  0.2069
13403SOL    HW241651   6.610   3.465   9.682  2.5069  0.6104  0.2880
13404SOL     OW41652   2.532   0.452   3.181 -0.0411  0.1599 -0.2466
13404SOL    HW141653   2.522   0.419   3.271  0.8053 -1.2955 -0.6534
13404SOL    HW241654   2.567   0.540   3.191  0.1889 -0.0471  0.8452
13405SOL     OW41655   6.883   2.504   7.097  0.3905 -0.1037  0.2976
13405SOL    HW141656   6.809   2.447   7.075 -1.5267  1.6768  1.6996
13405SOL    HW241657   6.862   2.537   7.185  3.5568 -0.5327  1.3414
13406SOL     OW41658   2.483   4.091   4.958 -0.3700  0.0561  0.2731
13406SOL    HW141659   2.437   4.038   4.892  0.3330  0.4465 -0.5470
13406SOL    HW241660   2.517   4.166   4.909  0.3649  0.2357  1.0390
13407SOL     OW41661   2.371   0.174   1.011  0.2910 -0.6454 -0.4552
13407SOL    HW141662   2.335   0.216   1.089  0.4473  0.4566 -0.9606
13407SOL    HW241663   2.401   0.246   0.956  1.2839 -1.4570 -1.0119
13408SOL     OW41664   6.050   2.195   4.476  0.2694 -0.8526  0.4601
13408SOL    HW141665   6.024   2.103   4.483 -1.9855 -0.2543  0.6366
13408SOL    HW241666   5.995   2.231   4.407  1.1076  0.3933  0.4041
13409SOL     OW41667   7.718   6.361   8.167 -0.8873  0.3307 -1.4605
13409SOL    HW141668   7.730   6.417   8.244  0.5457 -0.2571 -1.2279
13409SOL    HW241669   7.637   6.313   8.185 -0.7347  0.4299 -0.4719
13410SOL     OW41670   4.996   3.048   3.225  0.2608 -0.4989  0.2913
13410SOL    HW141671   5.056   3.122   3.218  0.9047 -0.6860  2.9504
13410SOL    HW241672   5.049   2.971   3.204  0.8472 -0.6026  2.0219
13411SOL     OW41673   3.217   1.701   0.603  0.6115 -0.6470 -0.8577
13411SOL    HW141674   3.176   1.736   0.524  0.9056 -0.2212 -0.8309
13411SOL    HW241675   3.145   1.682   0.662  0.4755  0.9373 -0.4687
13412SOL     OW41676   1.814   3.168   7.462 -0.2560 -0.4930 -0.0743
13412SOL    HW141677   1.863   3.214   7.530 -1.5719  0.4042  0.3037
13412SOL    HW241678   1.799   3.234   7.395 -1.4309 -0.5798  0.0832
13413SOL     OW41679   2.108   4.747   6.039  0.8062 -0.3547  0.1255
13413SOL    HW141680   2.104   4.677   6.104  2.8514 -0.2659  0.3929
13413SOL    HW241681   2.033   4.803   6.060  0.2103 -1.4623  1.0621
13414SOL     OW41682   6.502   5.807  10.144 -0.2818 -0.0097  0.6219
13414SOL    HW141683   6.435   5.788  10.209 -1.2605 -0.1409 -0.3976
13414SOL    HW241684   6.458   5.861  10.079  0.0926 -1.4911 -0.9362
13415SOL     OW41685   1.127   6.308   2.053 -0.6946 -0.6536  0.1973
13415SOL    HW141686   1.196   6.344   1.996 -0.1898 -0.6842  0.7819
13415SOL    HW241687   1.110   6.377   2.117 -1.0121 -0.7576  0.2274
13416SOL     OW41688   3.287   7.536  11.517 -0.2684 -0.9125  0.5520
13416SOL    HW141689   3.374   7.523  11.555 -1.0376 -1.8314  2.1019
13416SOL    HW241690   3.227   7.498  11.581 -2.1532  2.9930  1.4082
13417SOL     OW41691   5.875   3.637   3.287 -0.0592 -0.1808 -0.0665
13417SOL    HW141692   5.945   3.702   3.299 -2.1710  2.2334 -0.1782
13417SOL    HW241693   5.821   3.671   3.216 -0.2004 -3.1303 -1.5405
13418SOL     OW41694   3.091   4.650   5.519  0.4133  0.2485 -0.2338
13418SOL    HW141695   3.067   4.742   5.520  1.5330  0.5691 -0.8705
13418SOL    HW241696   3.164   4.643   5.580  0.5777 -0.1370 -0.4684
13419SOL     OW41697   7.382   4.454  10.026 -0.9854  0.7439 -0.4510
13419SOL    HW141698   7.442   4.379  10.018  1.6213  2.5291  0.9403
13419SOL    HW241699   7.357   4.455  10.118  0.8802  2.7986  0.1214
13420SOL     OW41700   2.033   6.712   5.285  0.2630  0.2649 -0.4747
13420SOL    HW141701   2.122   6.706   5.249 -0.0743 -2.9755 -1.0429
13420SOL    HW241702   2.038   6.662   5.367 -0.8557  0.7700 -0.0921
13421SOL     OW41703   6.524   6.202   0.183 -0.8640  0.2637  0.0515
13421SOL    HW141704   6.596   6.218   0.244 -1.1959 -0.3154  0.6143
13421SOL    HW241705   6.476   6.128   0.222 -0.3737 -0.9519 -1.5397
13422SOL     OW41706   0.683   1.435   6.844 -0.3566 -0.8563 -0.6178
13422SOL    HW141707   0.665   1.352   6.886 -0.1756 -0.4033  0.3783
13422SOL    HW241708   0.602   1.486   6.855 -0.5984 -1.0216 -1.5457
13423SOL     OW41709   4.592   7.878   9.232  0.2117 -0.1133 -0.0477
13423SOL    HW141710   4.674   7.924   9.212  0.4859 -0.7643 -0.4350
13423SOL    HW241711   4.585   7.882   9.328 -0.1548  1.3837 -0.1072
13424SOL     OW41712   2.013   1.982  11.700 -0.5410 -0.6492  0.6454
13424SOL    HW141713   2.025   2.069  11.739  2.2933 -0.7917  0.2773
13424SOL    HW241714   1.977   1.929  11.771 -0.2638  0.2916  1.5228
13425SOL     OW41715   2.140   5.253   4.245  0.1407 -0.2829  0.2730
13425SOL    HW141716   2.218   5.293   4.209 -0.3644  0.6442  0.1933
13425SOL    HW241717   2.109   5.315   4.312  0.3173 -1.3426  1.3781
13426SOL     OW41718   3.211   5.614   1.437 -0.0044 -0.1366  0.1498
13426SOL    HW141719   3.260   5.692   1.413  0.3130 -0.7017 -1.1796
13426SOL    HW241720   3.264   5.541   1.404 -0.4774 -0.9001  1.0110
13427SOL     OW41721   1.705   7.138   5.415 -0.3660 -0.3245  0.0491
13427SOL    HW141722   1.741   7.221   5.446 -1.7621 -0.3258  1.8621
13427SOL    HW241723   1.782   7.083   5.400  0.5904  1.3005 -1.2993
13428SOL     OW41724   4.225   6.348   8.660 -0.4112  0.4237  0.3117
13428SOL    HW141725   4.312   6.307   8.654 -1.0429 -0.7739 -2.1539
13428SOL    HW241726   4.228   6.399   8.741  1.4095 -2.2740  2.1269
13429SOL     OW41727   0.796   2.794   6.500 -0.2894 -0.1680  0.2544
13429SOL    HW141728   0.866   2.745   6.543 -1.8153 -3.6511 -0.8501
13429SOL    HW241729   0.733   2.813   6.570  0.8271  1.3677  0.9031
13430SOL     OW41730   2.537   3.968   9.951  0.4990  0.0910  0.0962
13430SOL    HW141731   2.556   4.062   9.956 -2.0961  0.7519 -0.6649
13430SOL    HW241732   2.447   3.964   9.919  0.8567 -2.7074 -0.8182
13431SOL     OW41733   2.989   3.433  11.385  0.0691  0.4352 -0.4126
13431SOL    HW141734   2.956   3.472  11.304  0.3988  0.6397 -0.4498
13431SOL    HW241735   2.911   3.425  11.441 -0.1502  0.3367 -0.7316
13432SOL     OW41736   1.318   3.089   1.089 -0.4316 -0.0604 -0.6581
13432SOL    HW141737   1.349   3.167   1.043  0.0381 -0.0339 -0.2946
13432SOL    HW241738   1.357   3.016   1.040 -0.6527 -0.0621 -0.8347
13433SOL     OW41739   6.568   3.627  11.767  0.4532  0.3185 -0.0074
13433SOL    HW141740   6.639   3.588  11.715  0.2627  1.6347 -1.3315
13433SOL    HW241741   6.499   3.644  11.703  0.1627  1.8996  0.6980
13434SOL     OW41742   3.395   4.692  11.075  0.0109 -0.3015 -0.0641
13434SOL    HW141743   3.449   4.676  10.998 -0.1891 -0.4411 -0.1765
13434SOL    HW241744   3.419   4.780  11.104 -1.1264  0.4345 -1.2791
13435SOL     OW41745   1.940   5.554   4.788  0.2875  0.9112 -0.3924
13435SOL    HW141746   1.871   5.540   4.724 -0.4704 -1.0194  0.7284
13435SOL    HW241747   1.895   5.585   4.866  0.9607  1.5230 -0.2329
13436SOL     OW41748   7.808   1.045   3.329 -0.2879  0.0353  0.1828
13436SOL    HW141749   7.873   1.019   3.394 -0.2727 -0.1649  0.0886
13436SOL    HW241750   7.761   0.964   3.308  0.4219 -0.1242 -0.8619
13437SOL     OW41751   7.170   7.132   4.512  0.2354  0.0616 -0.4167
13437SOL    HW141752   7.192   7.039   4.518  0.5901  0.1834  0.2182
13437SOL    HW241753   7.079   7.133   4.483 -0.7993 -0.5500  2.5140
13438SOL     OW41754   0.111   0.977   4.152  0.4447 -0.1873 -0.3426
13438SOL    HW141755   0.045   0.958   4.085  0.2762 -1.7189  0.2294
13438SOL    HW241756   0.062   0.981   4.234  0.8033  0.6347 -0.1534
13439SOL     OW41757   0.426   7.159   9.250 -0.1446  0.6231  0.0163
13439SOL    HW141758   0.404   7.194   9.336 -1.8497  0.4456 -0.3293
13439SOL    HW241759   0.443   7.236   9.196 -2.0382  0.9061 -0.2433
13440SOL     OW41760   0.944   7.498   5.132  0.7214  0.4535  0.2649
13440SOL    HW141761   1.028   7.483   5.087  0.3722 -1.8801  0.2422
13440SOL    HW241762   0.925   7.414   5.174 -2.7466  0.0798 -1.6847
13441SOL     OW41763   2.843   0.587  12.179 -0.0997 -0.2545  0.2447
13441SOL    HW141764   2.778   0.621  12.117 -0.4102  0.5215  0.9729
13441SOL    HW241765   2.830   0.492  12.177  0.9954 -0.4326 -2.0579
13442SOL     OW41766   2.189   4.598   5.039  0.8345 -0.2134  0.8926
13442SOL    HW141767   2.210   4.659   5.110  1.3716  0.1250  0.4479
13442SOL    HW241768   2.162   4.654   4.966 -1.2015 -0.6221  1.2934
13443SOL     OW41769   1.115   1.954   3.366 -0.2657 -0.0875  0.3835
13443SOL    HW141770   1.044   1.932   3.426 -1.3301  0.8197 -0.4951
13443SOL    HW241771   1.134   1.873   3.319 -2.1225  0.0913 -0.7731
13444SOL     OW41772   2.085   6.200  11.232  0.2944 -0.0516 -0.6891
13444SOL    HW141773   2.146   6.172  11.300 -0.0745  0.9748  0.0953
13444SOL    HW241774   2.016   6.134  11.233  0.7549 -0.5344 -0.6979
13445SOL     OW41775   5.025   1.882   3.622  0.6034 -0.4736  0.2301
13445SOL    HW141776   5.103   1.827   3.609 -0.9177 -2.6239 -0.2258
13445SOL    HW241777   5.057   1.971   3.607  3.0960 -1.2129  0.6163
13446SOL     OW41778   6.379   5.075  11.714  0.0456 -0.1981 -0.2192
13446SOL    HW141779   6.340   5.133  11.779 -0.4014 -1.5684  0.7768
13446SOL    HW241780   6.457   5.039  11.756  0.3538 -0.2888 -0.8457
13447SOL     OW41781   3.681   0.836   2.075 -0.6000  0.2098  0.1528
13447SOL    HW141782   3.725   0.808   2.156 -0.2392  0.9819  0.2248
13447SOL    HW241783   3.597   0.869   2.104 -0.6100  0.1668  0.1736
13448SOL     OW41784   3.853   1.143   4.890  0.1202 -0.2104 -0.4290
13448SOL    HW141785   3.780   1.115   4.835  0.1876 -0.3285 -0.4585
13448SOL    HW241786   3.879   1.228   4.854 -0.2394  0.0040 -0.1896
13449SOL     OW41787   5.856   3.420   9.507 -0.2303  0.0526  0.6035
13449SOL    HW141788   5.917   3.355   9.542  0.6957  0.8622  0.5483
13449SOL    HW241789   5.842   3.394   9.416 -0.3964 -0.4450  0.7708
13450SOL     OW41790   1.111   0.633   0.988  0.2939  0.4540 -0.5528
13450SOL    HW141791   1.021   0.616   0.960 -0.2887  0.4824  1.1863
13450SOL    HW241792   1.124   0.576   1.063  2.1506 -0.3998 -1.4541
13451SOL     OW41793   5.452   6.741   5.843 -0.0493 -0.1512 -0.3463
13451SOL    HW141794   5.535   6.781   5.817 -0.5739  0.8925 -0.4601
13451SOL    HW241795   5.450   6.657   5.797  0.6815  0.0688 -0.7896
13452SOL     OW41796   0.815   5.837   7.178  0.4848 -0.4176 -0.1754
13452SOL    HW141797   0.820   5.877   7.265  0.9503  0.6741 -0.6804
13452SOL    HW241798   0.904   5.806   7.161  0.7277  0.5707 -0.7908
13453SOL     OW41799   3.996   2.536  10.861 -0.0677  0.7705  0.7510
13453SOL    HW141800   3.965   2.585  10.937 -1.4329 -1.2702  1.5848
13453SOL    HW241801   4.059   2.595  10.819 -1.8091  3.3606  1.4923
13454SOL     OW41802   6.432   4.374   5.517  0.3884 -0.0660 -0.3306
13454SOL    HW141803   6.456   4.395   5.607  1.5486 -0.5655 -0.5001
13454SOL    HW241804   6.445   4.456   5.468  2.4685 -0.4497 -0.5296
13455SOL     OW41805   2.811   2.681  11.776 -0.1254  0.4018 -0.2488
13455SOL    HW141806   2.728   2.672  11.729 -0.4163  0.5560  0.2343
13455SOL    HW241807   2.797   2.754  11.836  0.3543  0.4176 -0.1513
13456SOL     OW41808   2.300   5.801   8.941 -0.6267  0.1570  0.1410
13456SOL    HW141809   2.287   5.830   8.850 -0.6664 -1.2672 -0.3365
13456SOL    HW241810   2.259   5.869   8.994 -0.9743  0.8129 -0.9282
13457SOL     OW41811   6.088   7.473  10.544  0.0289 -0.7594  0.4548
13457SOL    HW141812   6.079   7.406  10.476  0.3365 -0.5845  0.2366
13457SOL    HW241813   6.000   7.483  10.581 -1.0334  1.7189 -2.3468
13458SOL     OW41814   1.001   5.990   3.840 -0.2503  0.0216  0.6530
13458SOL    HW141815   1.030   6.067   3.791  0.3840 -0.9638 -0.6164
13458SOL    HW241816   0.907   5.985   3.823 -0.2468  0.3792  0.5238
13459SOL     OW41817   5.627   4.844   6.554  0.0608 -0.2018  0.2437
13459SOL    HW141818   5.611   4.815   6.644  1.1971  0.0981  0.5657
13459SOL    HW241819   5.668   4.769   6.511 -0.7987 -0.4642 -0.1373
13460SOL     OW41820   1.411   2.477   9.257  0.3279  0.2780  0.3911
13460SOL    HW141821   1.323   2.441   9.263  0.5370 -0.2189  0.4979
13460SOL    HW241822   1.468   2.401   9.246  0.8494  0.5076  1.3888
13461SOL     OW41823   1.902   3.938   7.616  0.6212 -0.0506 -0.1510
13461SOL    HW141824   1.914   3.928   7.521  2.1498 -1.9554  0.1805
13461SOL    HW241825   1.809   3.924   7.630  0.4904 -0.4654 -1.3079
13462SOL     OW41826   2.726   0.798   3.851 -0.2200 -0.0296 -0.9537
13462SOL    HW141827   2.658   0.733   3.865 -0.1594  0.0454 -0.2636
13462SOL    HW241828   2.692   0.854   3.781 -1.4627  0.7951  0.2508
13463SOL     OW41829   0.420   1.732   2.532  0.2613  0.2730 -0.5031
13463SOL    HW141830   0.348   1.782   2.494 -0.7813 -1.5428 -0.9778
13463SOL    HW241831   0.467   1.695   2.457 -0.0002 -0.8465 -0.1292
13464SOL     OW41832   0.897   0.364   7.335  0.4296 -0.5780  0.1381
13464SOL    HW141833   0.863   0.401   7.417 -3.2011 -1.6641 -0.7092
13464SOL    HW241834   0.920   0.274   7.357  0.7415 -0.4838  0.2137
13465SOL     OW41835   5.866   6.264   3.595 -0.5245 -0.1457  0.1254
13465SOL    HW141836   5.892   6.325   3.526 -0.4742  0.6240  0.8015
13465SOL    HW241837   5.861   6.179   3.552  2.3131 -0.2281 -0.2452
13466SOL     OW41838   1.615   3.263   9.714  0.3964  0.4956 -0.1305
13466SOL    HW141839   1.613   3.301   9.626  0.4201 -0.7762 -0.6938
13466SOL    HW241840   1.612   3.339   9.772 -1.4259  1.3000 -1.1919
13467SOL     OW41841   7.757   7.188   3.246  0.0982  0.8240 -0.1476
13467SOL    HW141842   7.752   7.141   3.330 -0.5306  0.7857 -0.2009
13467SOL    HW241843   7.821   7.257   3.261 -0.1795  0.9604  0.4360
13468SOL     OW41844   4.142   3.196   5.122  0.3332 -0.1968 -0.4901
13468SOL    HW141845   4.221   3.193   5.176  0.4461  0.1111 -0.6340
13468SOL    HW241846   4.073   3.222   5.183  0.6002  0.9077 -0.6425
13469SOL     OW41847   2.761   7.026   1.809 -0.5515  0.0951 -0.2478
13469SOL    HW141848   2.828   7.067   1.754 -1.0071 -1.0285 -1.6985
13469SOL    HW241849   2.790   6.935   1.817 -1.3349 -0.1373  0.0103
13470SOL     OW41850   0.320   7.436  11.789 -0.0310 -0.2469 -0.0883
13470SOL    HW141851   0.292   7.345  11.801 -0.9740  0.1357  0.7542
13470SOL    HW241852   0.392   7.431  11.726 -2.3334 -1.2362 -2.8116
13471SOL     OW41853   6.876   4.698   1.750  0.0401  0.0066 -0.1340
13471SOL    HW141854   6.922   4.677   1.832 -1.1176  3.0967  1.4875
13471SOL    HW241855   6.946   4.715   1.687  1.1219  1.4307  1.3723
13472SOL     OW41856   5.956   4.769   5.909  0.1600 -0.6029 -0.1543
13472SOL    HW141857   6.047   4.741   5.906  0.5844  0.7803 -1.8748
13472SOL    HW241858   5.911   4.701   5.959  1.0869 -4.2573 -3.8114
13473SOL     OW41859   7.703   1.771   7.919 -0.1417  0.2142  0.0875
13473SOL    HW141860   7.798   1.782   7.926 -0.2387  0.8885  0.4520
13473SOL    HW241861   7.671   1.858   7.895 -0.6324 -0.1053 -0.4216
13474SOL     OW41862   6.331   5.725   1.962 -0.4161  0.0722  0.0862
13474SOL    HW141863   6.294   5.683   1.884 -0.4465  0.9808 -0.3940
13474SOL    HW241864   6.426   5.716   1.950 -0.3999 -2.1188  1.2431
13475SOL     OW41865   5.496   4.302   7.234 -0.0962 -0.8398  0.4903
13475SOL    HW141866   5.590   4.286   7.241  0.4232  0.4589 -2.2426
13475SOL    HW241867   5.484   4.391   7.265 -0.3842 -0.8610  0.4439
13476SOL     OW41868   4.218   7.060  12.282 -0.1520 -0.0551 -0.3578
13476SOL    HW141869   4.138   7.033  12.237  0.7707 -2.2172 -0.8298
13476SOL    HW241870   4.218   7.010  12.363  1.6024 -1.5461 -1.2254
13477SOL     OW41871   0.118   6.195   6.219  0.5077  0.2014  0.5905
13477SOL    HW141872   0.031   6.235   6.219  0.0123 -0.8428 -0.1619
13477SOL    HW241873   0.145   6.198   6.311 -1.2312 -1.3476  1.2173
13478SOL     OW41874   2.821   0.215   1.710  0.0236  0.0875 -0.0847
13478SOL    HW141875   2.883   0.169   1.767  0.0669  1.0279  0.6683
13478SOL    HW241876   2.756   0.252   1.771 -0.4351  0.3698 -0.7303
13479SOL     OW41877   4.436   2.064  12.150  0.9174  0.3328 -0.0048
13479SOL    HW141878   4.489   2.008  12.207  0.3765  0.6225  0.7926
13479SOL    HW241879   4.423   2.012  12.071  0.6395 -0.5659  0.6173
13480SOL     OW41880   1.345   6.845   9.816  0.1082  0.5433  0.0961
13480SOL    HW141881   1.341   6.940   9.814 -3.0244  0.5217 -1.1001
13480SOL    HW241882   1.434   6.824   9.786  0.3095  3.0921 -1.4188
13481SOL     OW41883   5.534   4.693   3.478 -0.5176 -0.2571  0.1621
13481SOL    HW141884   5.516   4.778   3.518 -0.2202 -0.2068  0.1933
13481SOL    HW241885   5.628   4.694   3.462 -0.5478 -0.4965 -0.0342
13482SOL     OW41886   3.653   2.388  11.683 -0.1091 -0.0154  0.5804
13482SOL    HW141887   3.572   2.431  11.657 -0.6935  0.2515  2.6562
13482SOL    HW241888   3.626   2.300  11.708  0.3788 -0.1743  0.5606
13483SOL     OW41889   6.919   5.994   3.584 -0.1688 -0.1505 -0.0714
13483SOL    HW141890   6.827   6.003   3.559 -0.3607 -1.6991 -0.0451
13483SOL    HW241891   6.919   5.922   3.647  1.2410 -1.3098 -1.3264
13484SOL     OW41892   7.284   4.936  11.074 -0.4801 -0.0253 -0.2363
13484SOL    HW141893   7.333   5.000  11.022  0.1547 -0.2516  0.0657
13484SOL    HW241894   7.328   4.935  11.159 -1.4917  0.3132  0.3020
13485SOL     OW41895   3.873   4.576  11.979 -0.9481  0.0682  0.5611
13485SOL    HW141896   3.939   4.517  11.943  0.0831  1.3933  0.2007
13485SOL    HW241897   3.918   4.621  12.050 -2.3500 -1.0393  2.2398
13486SOL     OW41898   7.375   7.754   0.942  0.6809 -0.1178 -0.3897
13486SOL    HW141899   7.421   7.785   1.020  1.2097 -1.7544  0.0016
13486SOL    HW241900   7.394   7.660   0.940  0.1129 -0.2159 -2.1282
13487SOL     OW41901   5.381   6.362  11.609 -0.0408  0.1022 -0.0209
13487SOL    HW141902   5.428   6.445  11.598  0.0515  0.1217  0.5360
13487SOL    HW241903   5.381   6.324  11.521  0.8675  0.1836 -0.0691
13488SOL     OW41904   0.117   0.928   2.936 -0.3267  0.7112 -0.1312
13488SOL    HW141905   0.026   0.908   2.915  0.0997 -1.5387 -0.0674
13488SOL    HW241906   0.113   1.010   2.986 -2.4107  0.1919  0.6583
13489SOL     OW41907   4.097   6.441   4.135 -0.1480  0.2074  0.2725
13489SOL    HW141908   4.049   6.506   4.186  0.4148  1.1817 -0.4008
13489SOL    HW241909   4.148   6.392   4.200 -0.1712  0.7914  0.7392
13490SOL     OW41910   3.680   6.725   6.413  0.4304  0.6312 -0.1406
13490SOL    HW141911   3.617   6.669   6.369  0.8318 -1.6817  2.0478
13490SOL    HW241912   3.757   6.725   6.356 -0.6894  1.6893 -1.7335
13491SOL     OW41913   3.764   2.843  11.822 -0.0918 -0.4029  0.3028
13491SOL    HW141914   3.860   2.844  11.822 -0.0934 -0.2136 -0.3609
13491SOL    HW241915   3.739   2.877  11.736 -0.7698  1.2057  1.0831
13492SOL     OW41916   1.700   0.314   5.230 -0.1637 -0.3489 -0.1696
13492SOL    HW141917   1.756   0.299   5.154  2.1839  1.6589  1.0460
13492SOL    HW241918   1.725   0.245   5.292  1.5150  0.9018  0.6078
13493SOL     OW41919   7.846   7.208   1.291 -1.1319  0.3294  0.3610
13493SOL    HW141920   7.802   7.140   1.343 -2.2380  0.8098  0.0950
13493SOL    HW241921   7.782   7.232   1.224 -1.0923  2.1669  0.9055
13494SOL     OW41922   0.726   5.842   4.241 -0.0629 -0.4258  1.0115
13494SOL    HW141923   0.777   5.907   4.194  0.2069 -0.9182  0.6109
13494SOL    HW241924   0.638   5.880   4.249  0.1331  0.0405  0.9124
13495SOL     OW41925   7.383   5.804  11.375  0.0744  0.4847 -0.1314
13495SOL    HW141926   7.467   5.844  11.396 -0.2016  1.2460 -0.4355
13495SOL    HW241927   7.368   5.742  11.446  1.9788 -1.3824 -1.2620
13496SOL     OW41928   2.743   3.844   7.075 -0.5939  0.4509  0.2042
13496SOL    HW141929   2.709   3.755   7.073 -1.2105  0.6024  1.9677
13496SOL    HW241930   2.766   3.863   6.984  0.6986 -1.9066 -0.0358
13497SOL     OW41931   1.695   0.476   9.329 -0.0484 -0.0667  0.1251
13497SOL    HW141932   1.644   0.428   9.263  1.7506  1.8058 -2.8513
13497SOL    HW241933   1.773   0.423   9.342 -0.0660 -0.0762  0.1917
13498SOL     OW41934   6.974   5.696   8.574  0.2477 -0.1773  0.0376
13498SOL    HW141935   6.879   5.691   8.583 -0.1498 -0.0585 -2.9799
13498SOL    HW241936   7.001   5.761   8.639 -1.4682 -1.3226  2.0296
13499SOL     OW41937   2.806   5.748   0.667  0.3424  0.1605 -0.3162
13499SOL    HW141938   2.898   5.723   0.654  0.5582  0.6761  0.1665
13499SOL    HW241939   2.770   5.681   0.725 -0.0723 -1.0163 -1.8672
13500SOL     OW41940   6.587   4.334  10.847 -0.7746  0.2558  0.2050
13500SOL    HW141941   6.631   4.418  10.832 -1.0383  0.3401 -0.1035
13500SOL    HW241942   6.524   4.352  10.917 -2.7713  1.0257 -1.6826
13501SOL     OW41943   2.121   6.115   4.206  0.3328  0.0477 -0.8791
13501SOL    HW141944   2.198   6.159   4.168 -0.1207 -1.0946 -3.3130
13501SOL    HW241945   2.050   6.135   4.146 -1.3129  0.8798  1.2093
13502SOL     OW41946   5.070   6.298   1.909  0.4055  0.0029  0.0851
13502SOL    HW141947   5.108   6.218   1.871 -0.2367 -0.5014  0.4803
13502SOL    HW241948   5.007   6.266   1.973 -1.1515  0.8027 -0.9885
13503SOL     OW41949   2.448   5.738  10.731 -0.1338  0.5317 -0.4381
13503SOL    HW141950   2.481   5.685  10.659  0.4725  0.7842 -0.3563
13503SOL    HW241951   2.503   5.715  10.805  0.7259  1.8933 -0.6187
13504SOL     OW41952   2.556   0.232   4.575  0.0378 -0.0468  0.5395
13504SOL    HW141953   2.580   0.310   4.626 -1.2376  0.7495 -0.0274
13504SOL    HW241954   2.466   0.248   4.547  0.4906 -0.7060 -1.4708
13505SOL     OW41955   5.077   0.046   4.664 -0.0677 -0.1095 -0.4139
13505SOL    HW141956   5.014  -0.013   4.706 -0.8403  0.2220 -1.0752
13505SOL    HW241957   5.161   0.021   4.701 -0.3295 -1.8560 -0.9033
13506SOL     OW41958   7.421   5.605   9.435 -0.1443  0.0184  0.1310
13506SOL    HW141959   7.508   5.564   9.433 -0.2759 -0.2398 -0.3340
13506SOL    HW241960   7.397   5.614   9.343  0.5211  2.5138  0.1219
13507SOL     OW41961   0.064   5.363  11.323  0.6091  0.0250 -0.3234
13507SOL    HW141962   0.096   5.277  11.350 -0.0848 -0.4538 -1.0029
13507SOL    HW241963   0.114   5.383  11.243  0.6726  0.1945 -0.2420
13508SOL     OW41964   2.003   5.348   7.547  0.0688  0.4084 -0.7262
13508SOL    HW141965   1.993   5.278   7.483  0.9459 -0.2762 -0.1312
13508SOL    HW241966   2.093   5.378   7.537 -0.0665  0.9304 -0.4496
13509SOL     OW41967   6.542   5.208   3.678 -0.1206  0.2429 -0.7358
13509SOL    HW141968   6.516   5.201   3.587 -1.2526 -1.2001 -0.3380
13509SOL    HW241969   6.460   5.210   3.727  0.4281  2.2443  0.2223
13510SOL     OW41970   3.091   0.859   7.331  0.3488 -0.5579 -0.0697
13510SOL    HW141971   3.066   0.951   7.337  0.9890 -0.4332  0.7632
13510SOL    HW241972   3.103   0.831   7.421 -1.1174 -1.8321 -0.2210
13511SOL     OW41973   7.027   0.927   8.439 -0.5786 -0.0279 -0.1876
13511SOL    HW141974   6.972   0.854   8.410  0.5195 -0.4239 -1.3603
13511SOL    HW241975   6.995   1.002   8.390 -2.1164  0.4555  1.4745
13512SOL     OW41976   3.901   5.000   3.377  0.1043  0.3580 -0.2409
13512SOL    HW141977   3.991   5.030   3.390 -0.2994  0.6946  2.2983
13512SOL    HW241978   3.850   5.080   3.368 -0.2477  0.2821  0.9268
13513SOL     OW41979   3.128   1.264  11.511 -0.3008  0.3739  0.2756
13513SOL    HW141980   3.057   1.218  11.556 -1.7761  0.8756 -1.3967
13513SOL    HW241981   3.206   1.213  11.531 -1.8021 -2.9303 -1.4351
13514SOL     OW41982   6.726   0.466   4.391  0.0527 -0.1386  0.0599
13514SOL    HW141983   6.772   0.418   4.322  1.2022 -0.6814  1.1483
13514SOL    HW241984   6.704   0.550   4.352  1.0923 -0.2529 -0.8326
13515SOL     OW41985   7.447   0.666  10.313  0.4693 -0.1285 -0.1380
13515SOL    HW141986   7.377   0.670  10.377  0.5589 -1.7377  0.1150
13515SOL    HW241987   7.435   0.743  10.258  0.2679  1.1732  1.6654
13516SOL     OW41988   2.179   6.790   0.314 -0.0680  0.1320 -0.1428
13516SOL    HW141989   2.208   6.805   0.224 -0.5607  0.2256 -0.2931
13516SOL    HW241990   2.142   6.874   0.341  1.1970  0.4734  0.5890
13517SOL     OW41991   6.983   5.202   5.514 -0.2660  0.0964 -0.0490
13517SOL    HW141992   7.008   5.122   5.467 -2.1347 -0.1669 -0.6665
13517SOL    HW241993   6.912   5.240   5.462 -1.7172  0.3616  1.9932
13518SOL     OW41994   4.654   1.116   6.934 -0.1530 -0.6595 -0.0500
13518SOL    HW141995   4.581   1.126   6.872 -0.2087  2.0414  0.3539
13518SOL    HW241996   4.730   1.147   6.885  0.6822 -2.8162 -0.2278
13519SOL     OW41997   6.087   5.986   1.758  0.2279 -0.2837 -0.2795
13519SOL    HW141998   6.020   6.055   1.756 -0.4102 -0.8711 -2.8524
13519SOL    HW241999   6.129   5.992   1.672  0.3817 -2.8767 -0.4511
13520SOL     OW42000   4.896   4.055   8.938  0.2637  0.1181  0.2063
13520SOL    HW142001   4.866   4.137   8.978 -2.1930 -0.7101  0.2389
13520SOL    HW242002   4.945   4.011   9.007  0.7507  1.1104  0.5090
13521SOL     OW42003   7.126   0.944   0.203 -0.0907  0.2361  0.6462
13521SOL    HW142004   7.125   0.854   0.169 -0.9501  0.5015 -0.0750
13521SOL    HW242005   7.044   0.982   0.172 -0.6848  0.6626  2.6193
13522SOL     OW42006   7.503   1.835   4.214  0.0620 -0.3895 -0.0027
13522SOL    HW142007   7.482   1.924   4.242 -3.8625 -0.8030 -1.0109
13522SOL    HW242008   7.557   1.847   4.135 -0.3757  1.0881 -0.1143
13523SOL     OW42009   2.098   7.720   6.545  0.4594  0.2129 -0.3063
13523SOL    HW142010   2.118   7.810   6.519  0.9086  0.2210  0.0442
13523SOL    HW242011   2.144   7.666   6.482  0.8874  0.2311 -0.0114
13524SOL     OW42012   7.229   2.717   5.324  0.3138  0.4681 -0.2437
13524SOL    HW142013   7.285   2.772   5.269  1.8122 -0.8502 -0.1119
13524SOL    HW242014   7.290   2.672   5.383 -0.5910 -2.6279 -1.4905
13525SOL     OW42015   7.149   0.582   5.665  0.2452  0.1643 -0.2132
13525SOL    HW142016   7.205   0.649   5.703  0.7949 -0.8263  0.7645
13525SOL    HW242017   7.200   0.546   5.592  0.4181  0.0556 -0.0403
13526SOL     OW42018   3.080   2.400   9.724  0.2298 -0.3172  0.0572
13526SOL    HW142019   3.092   2.342   9.799  1.3094 -0.0139  0.1467
13526SOL    HW242020   3.093   2.344   9.647  1.3986 -0.1920  0.1448
13527SOL     OW42021   4.056   2.318   6.002  0.7023 -0.8676  0.0651
13527SOL    HW142022   4.046   2.316   6.097  0.3464 -2.9654  0.0409
13527SOL    HW242023   4.138   2.270   5.986  0.5345 -0.9084 -0.6989
13528SOL     OW42024   5.857   4.794   2.003 -0.0557  0.0329  0.6571
13528SOL    HW142025   5.814   4.756   1.927 -0.4343  1.6271  0.0235
13528SOL    HW242026   5.789   4.847   2.045  0.8133  1.2316  0.6198
13529SOL     OW42027   2.729   0.415   4.390  0.4130 -0.1849 -0.6784
13529SOL    HW142028   2.718   0.493   4.444  1.3632  0.3956 -1.3173
13529SOL    HW242029   2.657   0.358   4.417  0.5409  0.3147  0.8162
13530SOL     OW42030   0.012   7.083   5.495 -0.1575  0.5235  0.2647
13530SOL    HW142031  -0.064   7.042   5.537 -1.2944  0.8058 -1.4420
13530SOL    HW242032   0.020   7.039   5.411  0.4888  1.7231 -0.3186
13531SOL     OW42033   7.726   5.257   2.573  0.0365 -0.2207  0.2464
13531SOL    HW142034   7.707   5.254   2.479 -0.0596  1.5484  0.1755
13531SOL    HW242035   7.744   5.349   2.591 -0.0651 -0.5044  1.9961
13532SOL     OW42036   1.701   1.060   7.872  0.1207 -0.0389 -0.4657
13532SOL    HW142037   1.780   1.030   7.916 -0.0248 -1.6135 -1.2362
13532SOL    HW242038   1.640   1.078   7.944  0.1671 -1.7688  0.0514
13533SOL     OW42039   3.910   5.719   9.355 -0.5377  0.2621  0.0077
13533SOL    HW142040   3.841   5.779   9.381  0.3423  1.6944 -0.8451
13533SOL    HW242041   3.957   5.700   9.436 -1.3230  0.0385  0.4248
13534SOL     OW42042   0.719   7.116   3.121  0.0775  0.1648  0.1777
13534SOL    HW142043   0.751   7.030   3.094 -0.5979 -0.1130  0.2306
13534SOL    HW242044   0.792   7.175   3.106  0.0194 -0.1285 -1.3988
13535SOL     OW42045   1.356   7.827   9.993 -0.8377 -0.2504  0.3071
13535SOL    HW142046   1.262   7.823   9.979 -1.0337  1.6629  0.7079
13535SOL    HW242047   1.366   7.826  10.088 -0.7253  2.2296  0.4055
13536SOL     OW42048   6.010   0.504   5.313  0.0762 -0.6034  0.6925
13536SOL    HW142049   6.092   0.461   5.339 -0.2046 -0.2259  2.3482
13536SOL    HW242050   6.032   0.597   5.307  0.1460 -0.6831 -0.5874
13537SOL     OW42051   5.502   6.904   4.983 -0.1864 -0.1415 -0.2731
13537SOL    HW142052   5.488   6.918   4.889  1.1964 -0.5061 -0.5464
13537SOL    HW242053   5.449   6.828   5.004  0.5239 -0.8639 -1.0543
13538SOL     OW42054   1.830   1.082   7.184  0.2145 -0.0767  0.0100
13538SOL    HW142055   1.839   1.006   7.241  1.0538  0.5090  0.7043
13538SOL    HW242056   1.805   1.047   7.099 -1.7624 -0.9265  0.8799
13539SOL     OW42057   7.192   6.337   6.543 -0.7081 -0.1752  0.4035
13539SOL    HW142058   7.166   6.355   6.452 -1.1945  0.1189  0.5975
13539SOL    HW242059   7.119   6.287   6.579 -0.4468 -0.4216  0.5872
13540SOL     OW42060   0.563   6.524   4.439 -0.7637  0.6746  0.0193
13540SOL    HW142061   0.529   6.497   4.525 -2.2670  1.4397 -0.2928
13540SOL    HW242062   0.611   6.447   4.408 -0.4470  0.2732  1.3996
13541SOL     OW42063   3.843   1.613  10.430 -0.0202  0.2498 -0.5032
13541SOL    HW142064   3.860   1.692  10.482 -2.3341 -0.1176  0.9742
13541SOL    HW242065   3.806   1.645  10.348  1.9405  0.7572 -1.2565
13542SOL     OW42066   7.430   5.373   3.470  0.5560 -0.0226  0.3084
13542SOL    HW142067   7.370   5.433   3.516 -1.4663 -1.2312 -0.6280
13542SOL    HW242068   7.514   5.419   3.471 -0.3709  1.7982  1.6247
13543SOL     OW42069   7.522   0.355   3.701  0.1960 -0.0636  0.1503
13543SOL    HW142070   7.430   0.333   3.716 -0.1242  1.1160  0.0406
13543SOL    HW242071   7.564   0.344   3.786 -0.0602 -0.5570  0.2122
13544SOL     OW42072   2.107   7.744   4.243 -0.7767  0.4486 -0.4400
13544SOL    HW142073   2.165   7.680   4.285 -2.1080 -1.4840 -1.4255
13544SOL    HW242074   2.147   7.829   4.264  0.9350 -0.6513  1.1064
13545SOL     OW42075   3.721   2.183  10.882 -0.4016  0.2572  0.3361
13545SOL    HW142076   3.729   2.240  10.959 -0.8247 -1.5938  1.8348
13545SOL    HW242077   3.659   2.228  10.826  0.0003  1.7274  0.9935
13546SOL     OW42078   5.034   7.304  12.154  0.0017  0.0893 -0.3559
13546SOL    HW142079   5.111   7.350  12.121  0.1178 -0.4865 -0.9136
13546SOL    HW242080   4.965   7.370  12.153  0.2583  0.3597 -0.7629
13547SOL     OW42081   2.694   0.838   3.412  0.3569  0.6068  0.8382
13547SOL    HW142082   2.644   0.828   3.331 -0.2387  1.1357  1.1355
13547SOL    HW242083   2.673   0.926   3.443 -2.5867 -0.8362  3.6240
13548SOL     OW42084   0.186   5.047   9.627 -0.7131 -0.1168  0.5391
13548SOL    HW142085   0.192   5.136   9.661  0.7954  0.2050 -0.4453
13548SOL    HW242086   0.257   5.041   9.563 -1.6837 -1.5765 -0.4773
13549SOL     OW42087   5.659   1.702   4.738 -0.2947 -0.0775  0.4289
13549SOL    HW142088   5.573   1.713   4.697 -0.6883  0.0716  1.2632
13549SOL    HW242089   5.649   1.743   4.824  0.0612 -1.6244  1.2512
13550SOL     OW42090   1.597   3.679  11.070  0.1258 -0.6505 -0.1335
13550SOL    HW142091   1.691   3.695  11.082  0.2556 -0.3421 -1.3966
13550SOL    HW242092   1.568   3.748  11.010 -0.9312 -0.7101  0.2850
13551SOL     OW42093   5.272   0.300  10.925  0.2301  0.6111 -0.2401
13551SOL    HW142094   5.263   0.207  10.947 -3.1725  0.8017 -0.2908
13551SOL    HW242095   5.281   0.300  10.829 -1.2174  0.3367 -0.3973
13552SOL     OW42096   1.812   7.828   7.180  0.4078 -0.1505 -0.5284
13552SOL    HW142097   1.788   7.905   7.232 -0.4384 -0.6982 -0.0878
13552SOL    HW242098   1.782   7.753   7.232  1.0078 -0.7800 -1.0597
13553SOL     OW42099   1.779   3.239  12.115 -0.7621 -0.1147 -0.2637
13553SOL    HW142100   1.731   3.278  12.188  0.7445  0.9180  0.2202
13553SOL    HW242101   1.835   3.173  12.155 -0.4702 -0.0647 -0.5824
13554SOL     OW42102   0.092   1.559   7.140 -0.5917 -0.2399 -0.4773
13554SOL    HW142103   0.094   1.535   7.232 -2.8797  0.7129 -0.1396
13554SOL    HW242104   0.154   1.632   7.132 -0.6655 -0.0864  0.3559
13555SOL     OW42105   0.996   0.787   0.401  0.3937  0.2716 -0.3691
13555SOL    HW142106   1.056   0.722   0.436 -0.6678  0.0226  1.0658
13555SOL    HW242107   0.934   0.737   0.347  0.9207  0.4160 -1.1293
13556SOL     OW42108   3.341   6.211   7.213  0.1238  0.6927  0.3220
13556SOL    HW142109   3.384   6.289   7.178 -1.6232  1.3453 -0.4923
13556SOL    HW242110   3.375   6.204   7.303 -0.5730  3.1510  0.8817
13557SOL     OW42111   1.691   0.378  10.666 -0.2273  0.6954  0.7874
13557SOL    HW142112   1.614   0.384  10.611 -1.0369 -0.1974  1.7812
13557SOL    HW242113   1.718   0.469  10.680  0.9241  0.9241 -2.2570
13558SOL     OW42114   4.052   7.554   2.456  0.4002 -0.1981 -0.1094
13558SOL    HW142115   3.978   7.612   2.474  0.0392 -0.1379 -1.6708
13558SOL    HW242116   4.119   7.612   2.419  0.5801 -0.5453 -0.3302
13559SOL     OW42117   3.328   0.504  11.576  0.2794 -0.1387 -0.3317
13559SOL    HW142118   3.258   0.560  11.609  0.6231 -0.0849  0.3388
13559SOL    HW242119   3.284   0.440  11.520  0.0238  1.5259 -2.0928
13560SOL     OW42120   1.145   7.420   3.247 -0.0498 -0.5262  0.2840
13560SOL    HW142121   1.080   7.485   3.274  0.1727 -0.6541  1.1543
13560SOL    HW242122   1.153   7.432   3.152 -0.3187  0.4303  0.3746
13561SOL     OW42123   6.096   3.465   8.155 -0.0112 -0.0038  0.3303
13561SOL    HW142124   6.054   3.537   8.202  0.5679  0.6349 -0.1219
13561SOL    HW242125   6.038   3.390   8.171 -0.0022  0.2691  1.7684
13562SOL     OW42126   6.249   0.814  10.772  0.5693  0.5651  0.0966
13562SOL    HW142127   6.243   0.751  10.700  0.5576 -0.1343  0.7085
13562SOL    HW242128   6.159   0.844  10.784  0.6332  1.0148 -0.4571
13563SOL     OW42129   7.159   4.950  11.712  0.2033 -0.0398 -0.6316
13563SOL    HW142130   7.102   4.990  11.779  0.9448 -0.4338  0.2577
13563SOL    HW242131   7.237   4.923  11.760  1.3026  0.7779 -1.8782
13564SOL     OW42132   4.361   2.788  10.736 -0.0873 -0.4049 -0.3554
13564SOL    HW142133   4.283   2.816  10.785  0.2619  1.7302 -0.8949
13564SOL    HW242134   4.434   2.818  10.789  0.3315 -0.3775 -0.9432
13565SOL     OW42135   5.621   6.317   1.217 -1.2048 -0.2986 -0.3679
13565SOL    HW142136   5.651   6.379   1.284 -2.4480 -0.8756  0.7616
13565SOL    HW242137   5.597   6.372   1.143  1.0937  0.2893 -0.7498
13566SOL     OW42138   7.746   0.512   7.606  0.0006 -0.4159 -0.3384
13566SOL    HW142139   7.688   0.454   7.557 -0.2870  0.5824 -1.1946
13566SOL    HW242140   7.796   0.558   7.539 -1.9018  2.5687  0.0946
13567SOL     OW42141   2.157   0.885   6.218  0.6224 -0.2164  0.0664
13567SOL    HW142142   2.222   0.955   6.215  0.4934 -0.1165 -0.7729
13567SOL    HW242143   2.194   0.820   6.278  0.8608  0.4500  0.6447
13568SOL     OW42144   0.915   5.401   6.479 -0.5277 -0.0311  0.5818
13568SOL    HW142145   0.932   5.458   6.404  0.5846 -0.5607  0.4098
13568SOL    HW242146   0.850   5.339   6.448  0.5235 -0.7635 -0.2418
13569SOL     OW42147   3.995   4.707   2.580  0.6896 -0.1022  0.0713
13569SOL    HW142148   4.044   4.658   2.514 -0.8875 -1.5550 -0.0903
13569SOL    HW242149   3.903   4.682   2.565  0.1926  0.2816  2.1883
13570SOL     OW42150   5.287   1.917   2.595  0.2510 -0.4689  0.5876
13570SOL    HW142151   5.260   1.915   2.687 -0.7726  3.5859  0.5237
13570SOL    HW242152   5.228   1.854   2.552 -1.0123 -0.5415  2.2991
13571SOL     OW42153   5.544   5.261   9.661 -0.0627 -0.3172 -0.1727
13571SOL    HW142154   5.635   5.287   9.672 -0.4613  0.5676  1.3395
13571SOL    HW242155   5.535   5.180   9.711 -0.1331 -0.3340 -0.2124
13572SOL     OW42156   6.699   2.309   6.404  0.3667  0.1008 -0.5432
13572SOL    HW142157   6.791   2.295   6.381  0.8867  0.6141  1.0978
13572SOL    HW242158   6.693   2.402   6.427  0.1919 -0.5064  2.3323
13573SOL     OW42159   3.606   7.136   5.475 -0.2882 -0.2180 -0.0801
13573SOL    HW142160   3.591   7.138   5.381 -0.2549 -0.7232 -0.0965
13573SOL    HW242161   3.555   7.062   5.507 -2.5279  1.5521  0.7008
13574SOL     OW42162   2.721   3.879   4.601  0.2913  0.4386 -0.1836
13574SOL    HW142163   2.778   3.922   4.537  0.7780  0.1291  0.0329
13574SOL    HW242164   2.781   3.831   4.658 -0.1798  0.2225  0.1392
13575SOL     OW42165   0.388   4.932   5.781 -0.4966  0.4582  0.0478
13575SOL    HW142166   0.402   4.937   5.876  2.4118 -2.1583 -0.0862
13575SOL    HW242167   0.473   4.908   5.746 -1.6187  0.8008 -3.2281
13576SOL     OW42168   0.940   6.510   8.844 -0.6898 -0.6063  0.1112
13576SOL    HW142169   0.912   6.569   8.773 -2.9660 -0.9216  0.6664
13576SOL    HW242170   0.890   6.539   8.920  1.3283 -0.6067  1.5059
13577SOL     OW42171   5.612   7.450   7.464 -0.5586  0.1797 -0.1334
13577SOL    HW142172   5.689   7.449   7.408 -0.7199  1.4330 -0.4303
13577SOL    HW242173   5.646   7.444   7.553  0.1460  3.1784 -0.0927
13578SOL     OW42174   5.185   7.903   5.129  0.6261 -0.2047  0.5846
13578SOL    HW142175   5.275   7.917   5.157  0.3149  1.2194  0.9375
13578SOL    HW242176   5.184   7.928   5.037  0.6161 -0.3371  0.5484
13579SOL     OW42177   5.456   4.500   3.811  0.0066  0.0556  0.4002
13579SOL    HW142178   5.425   4.417   3.846  0.7252  0.1445  1.2973
13579SOL    HW242179   5.457   4.487   3.716 -0.0915 -0.8913  0.5151
13580SOL     OW42180   2.569   1.667  11.638 -0.1764 -0.1798  0.3673
13580SOL    HW142181   2.542   1.600  11.701 -1.0096 -1.5339 -1.3577
13580SOL    HW242182   2.526   1.747  11.668 -0.4351 -0.7474  1.5786
13581SOL     OW42183   1.507   5.677   4.913  0.7985 -0.0135  0.7184
13581SOL    HW142184   1.463   5.618   4.851 -0.6138 -0.5069  2.1339
13581SOL    HW242185   1.489   5.764   4.879 -2.3110 -0.1151  1.7829
13582SOL     OW42186   5.536   3.578   2.365 -0.2132  0.6764  0.0811
13582SOL    HW142187   5.541   3.501   2.309 -0.3907  1.3099 -0.8212
13582SOL    HW242188   5.460   3.626   2.334 -0.3289  1.0337  0.8799
13583SOL     OW42189   0.920   6.797   2.798  0.5822 -0.1845 -0.5162
13583SOL    HW142190   0.859   6.772   2.728  0.6110  0.2231 -0.6916
13583SOL    HW242191   0.988   6.729   2.796 -0.0528 -0.8417 -0.0784
13584SOL     OW42192   7.684   1.996   6.470  0.0362  0.3221  0.0688
13584SOL    HW142193   7.665   1.902   6.483  0.0258  0.3460  0.2366
13584SOL    HW242194   7.705   2.028   6.558 -3.7655  1.3463  0.7871
13585SOL     OW42195   3.768   0.172   4.585 -0.2255 -0.4420  0.0882
13585SOL    HW142196   3.834   0.140   4.523 -1.8226 -0.2328 -1.8432
13585SOL    HW242197   3.794   0.135   4.669  1.6935 -1.2900 -0.8082
13586SOL     OW42198   6.501   1.688  12.365 -0.3587  0.1556 -0.1681
13586SOL    HW142199   6.460   1.619  12.418  0.5137 -0.4624 -0.2929
13586SOL    HW242200   6.432   1.754  12.355 -1.2081 -0.6959 -0.0564
13587SOL     OW42201   6.831   5.476   0.754 -0.2684 -0.1070  0.0011
13587SOL    HW142202   6.907   5.519   0.793 -0.3611  0.7178 -0.6996
13587SOL    HW242203   6.758   5.535   0.774 -0.9116 -1.3534  1.4875
13588SOL     OW42204   2.063   2.582   6.231  0.1025 -0.8924 -0.0089
13588SOL    HW142205   1.969   2.567   6.219  0.3333 -1.5176 -1.1405
13588SOL    HW242206   2.095   2.502   6.272  0.3385 -1.1995 -0.7668
13589SOL     OW42207   0.936   7.052   2.736  0.3417 -0.2500 -0.5184
13589SOL    HW142208   0.855   7.080   2.692 -0.4137  0.5111  1.2771
13589SOL    HW242209   0.921   6.960   2.757 -0.1321 -0.0766 -0.0711
13590SOL     OW42210   4.300   2.866   9.535  0.0035 -0.1975 -0.2035
13590SOL    HW142211   4.326   2.956   9.556  0.9698 -0.4481 -0.2683
13590SOL    HW242212   4.380   2.825   9.502  0.3279 -1.8829  2.3752
13591SOL     OW42213   7.438   6.579   6.992 -0.1361 -0.0028  0.0817
13591SOL    HW142214   7.374   6.633   7.038  0.3398 -0.6672  1.5996
13591SOL    HW242215   7.433   6.494   7.035  0.5082 -0.5900 -0.9632
13592SOL     OW42216   6.141   5.255   6.852 -0.0466 -0.3015  0.8120
13592SOL    HW142217   6.062   5.264   6.799 -0.1761 -0.6110  0.9488
13592SOL    HW242218   6.158   5.343   6.886 -0.4766 -0.2813  0.9844
13593SOL     OW42219   1.094   4.967   7.716 -0.2330  0.1113  0.5853
13593SOL    HW142220   1.007   4.945   7.749 -1.5549  0.6911 -2.2148
13593SOL    HW242221   1.122   5.043   7.767 -0.6064 -1.0457  2.5995
13594SOL     OW42222   0.123   3.885   3.534  0.2686  0.5814 -0.1424
13594SOL    HW142223   0.115   3.970   3.576  0.0434 -0.2271  1.5139
13594SOL    HW242224   0.160   3.905   3.448  1.3132  2.2486  0.6355
13595SOL     OW42225   6.060   6.047   0.126  0.2827 -0.2086  0.0876
13595SOL    HW142226   5.996   6.062   0.057  1.5079  2.4931 -0.6226
13595SOL    HW242227   6.142   6.080   0.090  1.9146 -2.6233  1.3283
13596SOL     OW42228   2.091   7.747   0.654 -0.0317  0.7288 -0.1580
13596SOL    HW142229   2.024   7.778   0.714  1.0611  2.1386  0.3912
13596SOL    HW242230   2.173   7.785   0.688  1.3706 -2.3578  0.2765
13597SOL     OW42231   1.508   0.841   5.781  0.6496  0.0304 -0.0332
13597SOL    HW142232   1.479   0.762   5.735  0.2214 -1.3887  2.5036
13597SOL    HW242233   1.427   0.885   5.808  0.7319 -1.3530  2.8146
13598SOL     OW42234   5.256   1.710   5.065 -0.3341  0.0790 -0.4906
13598SOL    HW142235   5.176   1.743   5.026  0.0085  1.5089 -0.0595
13598SOL    HW242236   5.326   1.759   5.022  0.1628  0.3458  0.5743
13599SOL     OW42237   1.686   7.037   7.903 -0.7897  0.4980 -0.5671
13599SOL    HW142238   1.743   6.979   7.853  0.0102  0.2972  0.5366
13599SOL    HW242239   1.629   6.978   7.952 -0.3654  0.6435  0.1114
13600SOL     OW42240   4.583   5.055   4.676 -0.3110 -0.5788 -0.3703
13600SOL    HW142241   4.549   5.069   4.765 -1.2598  3.2138 -1.1547
13600SOL    HW242242   4.647   5.125   4.664  1.3725 -2.2866 -2.0318
13601SOL     OW42243   7.745   3.038   1.383 -0.0260  0.5404 -0.0345
13601SOL    HW142244   7.762   2.983   1.459  0.5809  0.0160 -0.5361
13601SOL    HW242245   7.678   3.100   1.412 -0.5429 -0.3054  0.6092
13602SOL     OW42246   5.893   5.033   5.671 -0.0623  0.1527  0.2767
13602SOL    HW142247   5.984   5.007   5.657 -0.7296 -1.2159 -1.8551
13602SOL    HW242248   5.868   5.080   5.592 -1.0678  1.0289  1.0765
13603SOL     OW42249   4.469   1.930   6.609  0.0642  0.3506  0.1874
13603SOL    HW142250   4.564   1.928   6.624 -0.1818  0.8626  2.0564
13603SOL    HW242251   4.434   1.866   6.670 -0.6830 -1.4551 -1.9979
13604SOL     OW42252   4.611   0.987   0.251  0.4131 -0.3384  0.0362
13604SOL    HW142253   4.696   1.021   0.222  0.3547 -0.3883 -0.1984
13604SOL    HW242254   4.559   1.065   0.270 -0.2631 -0.2014 -2.0409
13605SOL     OW42255   0.548   5.612   1.602 -0.1411 -0.4380 -0.1775
13605SOL    HW142256   0.465   5.659   1.615 -1.3476 -2.1229 -1.3806
13605SOL    HW242257   0.527   5.521   1.625  1.5289 -0.8153 -0.0501
13606SOL     OW42258   1.840   4.406   9.882 -0.1401 -0.2832  0.0452
13606SOL    HW142259   1.871   4.496   9.869 -2.8844  0.4954 -2.0979
13606SOL    HW242260   1.909   4.364   9.934  1.2619  3.0220  1.1500
13607SOL     OW42261   1.896   1.088   9.285  0.3097 -0.0543 -0.2900
13607SOL    HW142262   1.824   1.069   9.345  1.8018  0.8591  1.9059
13607SOL    HW242263   1.881   1.179   9.259  2.0752  1.1409  2.4416
13608SOL     OW42264   6.537   0.744   6.447  0.5249  0.4342 -0.3236
13608SOL    HW142265   6.623   0.779   6.422 -0.1116  2.0119 -0.4075
13608SOL    HW242266   6.495   0.723   6.364  1.0408 -0.9704 -0.2651
13609SOL     OW42267   2.378   3.628   8.716 -0.7413  0.1158 -0.0740
13609SOL    HW142268   2.458   3.626   8.665 -0.4559 -1.4452  0.3761
13609SOL    HW242269   2.345   3.718   8.707  0.2707  0.3700 -1.4483
13610SOL     OW42270   2.021   2.690   9.772 -0.2289  0.1383 -0.2380
13610SOL    HW142271   2.010   2.746   9.848 -1.1101 -1.2469  0.7043
13610SOL    HW242272   1.942   2.705   9.720 -0.1483  0.2651 -0.3239
13611SOL     OW42273   7.429   7.828   1.712 -0.6852 -0.3651  0.0586
13611SOL    HW142274   7.514   7.814   1.669  1.2127  0.4946  3.1958
13611SOL    HW242275   7.450   7.878   1.790 -3.5623 -3.3039  3.0152
13612SOL     OW42276   5.179   6.512  10.689  0.1736  0.1204 -0.0712
13612SOL    HW142277   5.180   6.428  10.643 -0.4082 -0.6610  1.2709
13612SOL    HW242278   5.224   6.494  10.771 -0.5289  0.9385  0.5068
13613SOL     OW42279   7.216   7.837   9.873 -0.5830  0.1861  0.2139
13613SOL    HW142280   7.206   7.932   9.868 -1.8488  0.0713  0.1571
13613SOL    HW242281   7.172   7.813   9.955 -0.4121 -0.3637  0.1474
13614SOL     OW42282   2.390   0.435  10.676  0.2296 -0.1956 -0.7315
13614SOL    HW142283   2.350   0.425  10.590 -0.5858  3.0208 -0.8410
13614SOL    HW242284   2.321   0.472  10.731  0.7266 -2.1549  1.3982
13615SOL     OW42285   5.973   5.543   6.901 -0.4191  0.8926 -0.2918
13615SOL    HW142286   5.924   5.521   6.821 -1.6389 -0.2536  0.7316
13615SOL    HW242287   5.945   5.631   6.923 -1.1185  0.7037 -0.3980
13616SOL     OW42288   3.031   5.104   9.666 -0.4296 -0.4336 -0.0317
13616SOL    HW142289   3.107   5.109   9.608 -1.7071  0.2479 -1.7497
13616SOL    HW242290   2.966   5.161   9.625 -2.0259 -1.3105  1.1527
13617SOL     OW42291   2.677   1.577  10.496  0.2385  0.6183  0.2280
13617SOL    HW142292   2.738   1.608  10.563 -0.1112  0.6477  0.5348
13617SOL    HW242293   2.601   1.634  10.504 -0.7546 -0.7661  1.3345
13618SOL     OW42294   5.274   4.193   7.408 -0.0133 -0.7603 -0.1951
13618SOL    HW142295   5.350   4.218   7.356  0.4784  3.1465  2.0267
13618SOL    HW242296   5.209   4.261   7.390 -2.1557 -2.6534 -0.1446
13619SOL     OW42297   3.840   5.721   1.233 -0.7042  0.1913  0.0614
13619SOL    HW142298   3.877   5.696   1.148 -1.5929  1.4728 -0.7377
13619SOL    HW242299   3.916   5.749   1.285 -0.1202 -0.8455 -0.1928
13620SOL     OW42300   7.816   3.699   9.638 -0.2912  0.0762 -0.5020
13620SOL    HW142301   7.722   3.697   9.652 -0.1707  1.0518  0.5070
13620SOL    HW242302   7.826   3.710   9.543 -1.2954  3.9485 -0.3325
13621SOL     OW42303   2.350   4.354   7.936  0.8152  0.2270  0.4313
13621SOL    HW142304   2.364   4.278   7.880  1.2470  1.3373 -1.0266
13621SOL    HW242305   2.277   4.400   7.896 -0.9162 -0.4949  2.5459
13622SOL     OW42306   2.929   1.541   5.706 -0.3228 -0.5678  0.0088
13622SOL    HW142307   3.005   1.562   5.652 -2.2547  2.4736 -1.8336
13622SOL    HW242308   2.901   1.455   5.676  1.9534 -1.4887  0.3267
13623SOL     OW42309   3.744   5.398   4.773  0.2553 -0.2156  0.2251
13623SOL    HW142310   3.793   5.451   4.710  1.0739  0.8167  1.6577
13623SOL    HW242311   3.659   5.442   4.780  0.3273 -0.0645  0.1623
13624SOL     OW42312   7.923   4.866  10.415 -0.2777  0.0269 -0.2750
13624SOL    HW142313   7.831   4.849  10.394 -0.5239 -0.0974  0.8411
13624SOL    HW242314   7.933   4.834  10.505  0.8869 -0.0589 -0.4272
13625SOL     OW42315   1.798   7.680   8.753 -0.3595  0.7968 -0.2957
13625SOL    HW142316   1.811   7.648   8.663 -0.3317 -1.1980  0.3560
13625SOL    HW242317   1.887   7.683   8.790 -0.3852  1.4571 -0.2809
13626SOL     OW42318   4.411   5.900   5.550  0.3412  0.1262 -0.2080
13626SOL    HW142319   4.410   5.817   5.503 -0.4854  0.6135 -1.0754
13626SOL    HW242320   4.501   5.932   5.541  0.9252 -1.0963  0.9332
13627SOL     OW42321   7.056   4.728   1.514  0.3825  0.5349 -0.1160
13627SOL    HW142322   6.992   4.758   1.450 -1.1265 -1.3656  0.3735
13627SOL    HW242323   7.108   4.805   1.535 -2.8538  2.6896  0.7252
13628SOL     OW42324   4.988   3.825   5.762 -0.2245 -0.0539 -0.0537
13628SOL    HW142325   5.006   3.808   5.670 -1.1611  1.0672 -0.4818
13628SOL    HW242326   4.912   3.770   5.782  0.3532 -0.7593  0.2352
13629SOL     OW42327   6.659   5.873   0.308  0.1876  0.5489 -0.3009
13629SOL    HW142328   6.724   5.805   0.287 -0.4603 -1.4923  3.3810
13629SOL    HW242329   6.710   5.944   0.346  0.6770  1.3764 -2.3727
13630SOL     OW42330   0.074   0.745   0.432 -0.1075 -0.1166 -0.1406
13630SOL    HW142331   0.004   0.683   0.450  1.1413 -1.0576  1.7567
13630SOL    HW242332   0.154   0.692   0.429  0.8083  1.1963 -0.0291
13631SOL     OW42333   2.746   6.026   0.187  0.4656 -0.3712  0.1098
13631SOL    HW142334   2.662   6.070   0.191 -0.3233 -1.8537  0.6444
13631SOL    HW242335   2.802   6.074   0.249 -0.2677  0.0482  0.4500
13632SOL     OW42336   5.813   2.254   7.916  0.8357  0.4529 -0.2068
13632SOL    HW142337   5.775   2.235   7.830  0.7122 -0.6163  0.0649
13632SOL    HW242338   5.819   2.350   7.920  2.1518  0.4814 -1.9635
13633SOL     OW42339   2.447   7.282  12.197 -0.5841 -0.3176  0.2741
13633SOL    HW142340   2.384   7.212  12.181 -0.1515 -1.1347  1.9259
13633SOL    HW242341   2.531   7.246  12.168 -0.4164 -0.3747  0.8107
13634SOL     OW42342   4.901   2.236   4.560 -0.2147 -0.0041 -0.1725
13634SOL    HW142343   4.857   2.312   4.597 -1.9025  0.2171 -2.4494
13634SOL    HW242344   4.888   2.167   4.625 -0.2533  1.1484  1.0888
13635SOL     OW42345   3.165   0.636  11.213  0.6028 -0.0036  0.8024
13635SOL    HW142346   3.207   0.554  11.184  0.8560  0.3432  0.1624
13635SOL    HW242347   3.238   0.697  11.223  0.2525  0.6746 -0.5499
13636SOL     OW42348   4.011   0.112  10.754  0.6921 -0.5177 -0.3998
13636SOL    HW142349   4.064   0.192  10.757  0.1721 -0.1768 -0.2239
13636SOL    HW242350   3.964   0.118  10.671  0.1320 -0.3034 -0.0700
13637SOL     OW42351   3.814   6.881   7.464 -0.5416 -0.0460  0.1421
13637SOL    HW142352   3.855   6.852   7.546 -0.0185 -0.8029 -0.3673
13637SOL    HW242353   3.756   6.809   7.440  0.7108 -0.7042 -1.1013
13638SOL     OW42354   6.643   5.948   6.898 -0.0763  0.5978  0.2408
13638SOL    HW142355   6.624   6.027   6.846 -0.4368  0.5447  0.2882
13638SOL    HW242356   6.562   5.931   6.946 -0.3388 -0.3658 -0.5061
13639SOL     OW42357   5.210   1.376   2.968 -0.2381  0.1146 -0.7758
13639SOL    HW142358   5.234   1.415   2.884 -0.9007 -0.4533 -1.2366
13639SOL    HW242359   5.123   1.340   2.954 -0.4464  0.1920  0.2213
13640SOL     OW42360   0.805   6.071   5.387  0.4809  0.8289 -0.2045
13640SOL    HW142361   0.822   6.165   5.393  1.2988  0.6282  0.9407
13640SOL    HW242362   0.848   6.034   5.464  0.1042 -0.4793 -0.6012
13641SOL     OW42363   0.752   2.320   3.510  0.1698 -0.2679 -0.0818
13641SOL    HW142364   0.691   2.382   3.549 -0.6816 -1.7042  0.9565
13641SOL    HW242365   0.837   2.345   3.547  0.0421  0.9298 -0.5282
13642SOL     OW42366   1.164   3.215   3.191 -0.4601  0.0766  0.3946
13642SOL    HW142367   1.193   3.302   3.164 -1.8697  1.3560  2.7131
13642SOL    HW242368   1.164   3.164   3.110  0.3410  2.2397 -1.0549
13643SOL     OW42369   4.117   1.218   5.444  0.3602  0.5991  0.0469
13643SOL    HW142370   4.079   1.294   5.488 -0.3299  1.4087 -1.8193
13643SOL    HW242371   4.208   1.216   5.474  0.0457  1.3697  1.1287
13644SOL     OW42372   7.432   4.561   1.544  0.1937  0.4870 -0.9271
13644SOL    HW142373   7.502   4.495   1.541 -1.5942 -1.6643  1.2257
13644SOL    HW242374   7.459   4.621   1.613 -0.4058 -0.8547  0.5399
13645SOL     OW42375   7.407   7.067   1.292 -0.0323  0.0461  0.5146
13645SOL    HW142376   7.387   7.002   1.225 -2.3857 -0.1227  1.2806
13645SOL    HW242377   7.369   7.148   1.259 -3.6963 -0.5566  2.5965
13646SOL     OW42378   4.031   3.805   7.400  0.1102 -0.0510  0.0395
13646SOL    HW142379   3.949   3.806   7.351 -0.3912  0.1372  0.8680
13646SOL    HW242380   4.025   3.882   7.457  1.0657  0.2273 -0.2181
13647SOL     OW42381   0.258   2.450   4.639 -0.2347 -0.3149  0.0445
13647SOL    HW142382   0.199   2.495   4.699  0.3125  0.0617  0.3149
13647SOL    HW242383   0.224   2.361   4.633  0.0779 -0.5497  1.4359
13648SOL     OW42384   2.951   6.512   4.541 -0.0035  0.6013  0.0912
13648SOL    HW142385   2.999   6.447   4.490  0.5414  0.9811  0.1080
13648SOL    HW242386   3.009   6.588   4.543  0.0368  0.5601  1.3552
13649SOL     OW42387   4.811   5.878   3.846  0.2491  0.3984 -0.0142
13649SOL    HW142388   4.763   5.848   3.769  1.3787  1.2689 -1.1194
13649SOL    HW242389   4.791   5.815   3.914 -0.1838 -0.8393 -1.2484
13650SOL     OW42390   5.553   1.571   6.003 -0.7478 -0.2503  0.2656
13650SOL    HW142391   5.618   1.627   6.045  0.3853 -2.5603  1.8126
13650SOL    HW242392   5.528   1.618   5.923  2.1049  1.1782  0.1068
13651SOL     OW42393   4.475   2.726   2.563  0.0918 -0.2655 -0.0625
13651SOL    HW142394   4.387   2.753   2.535  0.3091  0.3387 -0.1628
13651SOL    HW242395   4.515   2.805   2.597  0.9045 -0.3461 -0.7900
13652SOL     OW42396   2.729   0.522   2.935  0.3544  0.0488 -0.1692
13652SOL    HW142397   2.730   0.616   2.919 -1.6676  0.4134  1.4419
13652SOL    HW242398   2.820   0.499   2.952  0.6608  2.0822  1.2846
13653SOL     OW42399   4.150   5.482   7.789 -0.1691  0.4383 -0.0141
13653SOL    HW142400   4.114   5.473   7.701 -0.9177  1.0958  0.2083
13653SOL    HW242401   4.143   5.394   7.827  1.7210 -0.2565 -1.1516
13654SOL     OW42402   0.967   6.495   3.333 -0.4913  0.1799 -0.2728
13654SOL    HW142403   0.876   6.483   3.360  0.1563 -2.0951  1.1680
13654SOL    HW242404   1.013   6.420   3.370  1.6256  0.1317 -2.7750
13655SOL     OW42405   5.123   0.866   1.819  0.0045 -0.0825  0.2167
13655SOL    HW142406   5.067   0.857   1.896 -1.8432 -0.0542 -1.0324
13655SOL    HW242407   5.139   0.960   1.813 -1.0516  0.0883 -0.1955
13656SOL     OW42408   4.120   3.944  11.891 -0.2595 -0.5759  0.6927
13656SOL    HW142409   4.194   3.890  11.920  1.1620 -0.4586 -2.3776
13656SOL    HW242410   4.048   3.881  11.878  0.6193 -1.3838 -0.4029
13657SOL     OW42411   0.193   1.844   4.491  0.1777 -0.1138  0.4145
13657SOL    HW142412   0.222   1.813   4.577 -1.1668 -1.4243  0.4325
13657SOL    HW242413   0.175   1.764   4.441  0.0221  0.6324 -0.7741
13658SOL     OW42414   5.060   2.903   1.837  0.6581 -0.1767  0.6331
13658SOL    HW142415   5.133   2.879   1.894  0.2946 -0.9082  0.7950
13658SOL    HW242416   5.085   2.870   1.751 -0.6841 -2.9233  1.2225
13659SOL     OW42417   3.505   1.032   7.813  0.1366  0.1391  0.3716
13659SOL    HW142418   3.470   0.970   7.877 -0.0695 -0.5179 -0.3594
13659SOL    HW242419   3.525   1.110   7.864 -0.5228 -0.1804  1.1481
13660SOL     OW42420   6.935   1.127   7.497  0.5207 -0.7404  0.2536
13660SOL    HW142421   6.849   1.165   7.479  0.6978 -0.1924  0.5327
13660SOL    HW242422   6.994   1.202   7.498  0.4774 -0.6023  3.4236
13661SOL     OW42423   1.053   4.227   3.586  0.0381  0.0685  0.0309
13661SOL    HW142424   1.036   4.308   3.536  1.4217  0.4379  0.0981
13661SOL    HW242425   1.091   4.258   3.668  1.3110 -0.6509 -0.2538
13662SOL     OW42426   4.847   6.284   5.446 -0.3703 -0.4901  0.2494
13662SOL    HW142427   4.939   6.276   5.420 -0.7135  0.3503 -1.3129
13662SOL    HW242428   4.831   6.205   5.499  0.7879 -1.5301 -0.8636
13663SOL     OW42429   6.011   0.180  12.296  0.4080  0.1305 -0.1398
13663SOL    HW142430   5.976   0.182  12.384  0.1259  0.6065 -0.2585
13663SOL    HW242431   6.034   0.089  12.281  1.1870  0.1729  0.7112
13664SOL     OW42432   3.199   1.087   8.113 -0.2626  0.6095  0.4543
13664SOL    HW142433   3.154   1.102   8.030  1.1810 -0.6588 -0.6209
13664SOL    HW242434   3.173   1.160   8.169 -1.6425  1.2360 -0.9413
13665SOL     OW42435   5.190   7.337   1.659 -0.2330 -0.0705  0.2031
13665SOL    HW142436   5.156   7.248   1.649 -0.6705  0.1947 -0.8001
13665SOL    HW242437   5.211   7.364   1.570  0.7655  0.5042  0.5985
13666SOL     OW42438   6.612   5.733   8.419 -0.0075  0.3381 -0.0087
13666SOL    HW142439   6.637   5.664   8.358  0.8377  0.4348  0.2173
13666SOL    HW242440   6.516   5.739   8.411  0.0952  0.4713 -1.4497
13667SOL     OW42441   5.894   4.007   1.463 -0.3367  0.2793  0.6239
13667SOL    HW142442   5.917   3.957   1.385 -1.0913  3.6740 -2.0204
13667SOL    HW242443   5.977   4.041   1.496  0.0766 -1.8291  1.8959
13668SOL     OW42444   0.530   0.309   3.875 -0.8219 -0.2360  0.2426
13668SOL    HW142445   0.596   0.378   3.874 -0.5604 -0.4860 -0.3168
13668SOL    HW242446   0.541   0.265   3.960 -0.1707 -0.3661  0.0944
13669SOL     OW42447   1.066   7.498   5.890  0.3209 -0.2029 -0.3066
13669SOL    HW142448   0.997   7.456   5.941 -0.5873  0.4211 -1.0081
13669SOL    HW242449   1.144   7.445   5.908 -0.5494 -1.5265 -0.2835
13670SOL     OW42450   5.197   6.902   9.383 -0.1818  0.1719 -0.5581
13670SOL    HW142451   5.188   6.914   9.289 -0.1627 -0.5012 -0.6521
13670SOL    HW242452   5.123   6.949   9.421  0.6889  1.8214 -0.7955
13671SOL     OW42453   4.504   7.636  11.838  0.1614 -0.1657 -0.4970
13671SOL    HW142454   4.543   7.723  11.831 -0.4722  0.2108  0.3767
13671SOL    HW242455   4.559   7.580  11.784  0.9667  0.6549 -0.5461
13672SOL     OW42456   4.023   5.222   4.932  0.4523 -0.0080  0.8122
13672SOL    HW142457   3.983   5.184   5.011 -0.7999 -2.2768 -0.8208
13672SOL    HW242458   4.032   5.315   4.953 -1.7148 -0.1644  2.9111
13673SOL     OW42459   5.431   5.660   6.495  0.2064  0.1345  0.0512
13673SOL    HW142460   5.470   5.682   6.411  0.2420 -1.5012 -0.3977
13673SOL    HW242461   5.505   5.633   6.550 -0.1012 -1.7368 -0.3945
13674SOL     OW42462   5.677   7.046   7.746  0.6872 -0.1178  0.4715
13674SOL    HW142463   5.651   7.039   7.655  0.8331  1.1721  0.3121
13674SOL    HW242464   5.768   7.018   7.747  0.6862 -0.1324  0.2202
13675SOL     OW42465   5.584   2.831   2.850 -0.1165 -0.2219  0.1724
13675SOL    HW142466   5.533   2.798   2.776 -2.3326  0.6791  1.2076
13675SOL    HW242467   5.552   2.782   2.925  1.6751 -0.6955  0.6806
13676SOL     OW42468   6.940   7.673   1.099 -0.0529 -0.1138 -0.5671
13676SOL    HW142469   6.879   7.651   1.170 -0.4997  1.2924 -0.4733
13676SOL    HW242470   7.019   7.704   1.144 -0.4126  0.9795 -0.6560
13677SOL     OW42471   2.295   7.576   8.633 -0.3594  0.6390  0.0069
13677SOL    HW142472   2.251   7.563   8.549  0.8540 -0.6502 -0.4562
13677SOL    HW242473   2.252   7.514   8.692  0.5639 -0.3779 -0.3608
13678SOL     OW42474   3.176   5.324   3.095 -0.0539 -0.0021  0.0387
13678SOL    HW142475   3.207   5.383   3.164 -0.8469 -0.4037  0.7569
13678SOL    HW242476   3.230   5.346   3.019  2.6336 -1.2460  1.4281
13679SOL     OW42477   7.359   5.421   1.614  0.3298 -0.4974  0.1370
13679SOL    HW142478   7.436   5.407   1.668  0.2226 -1.0321  0.1584
13679SOL    HW242479   7.345   5.516   1.615  0.3741 -0.4988  0.9795
13680SOL     OW42480   2.166   7.517  11.725  0.1057 -0.3371  0.4490
13680SOL    HW142481   2.218   7.447  11.765  2.0754  0.8479  0.1007
13680SOL    HW242482   2.165   7.586  11.791  0.5810  0.3623 -0.2585
13681SOL     OW42483   4.930   6.403   0.675 -0.2870  0.3266  0.0011
13681SOL    HW142484   5.023   6.427   0.674 -0.2477  0.5597  2.5569
13681SOL    HW242485   4.927   6.313   0.642  1.0161 -0.1138  1.0340
13682SOL     OW42486   7.299   1.381   0.349  0.2710  0.2506 -0.3018
13682SOL    HW142487   7.363   1.424   0.293  0.2236  0.9761  0.1887
13682SOL    HW242488   7.298   1.290   0.319  3.3182 -0.4103  1.2142
13683SOL     OW42489   5.242   3.449   9.064 -0.8307  0.1611 -0.2261
13683SOL    HW142490   5.154   3.458   9.028 -0.7700  0.5134 -0.2868
13683SOL    HW242491   5.229   3.413   9.151 -0.9810 -0.7104 -0.5948
13684SOL     OW42492   3.737   1.931   9.638 -0.6967 -0.3069 -0.2670
13684SOL    HW142493   3.793   1.898   9.708  1.1489 -1.5923 -2.2185
13684SOL    HW242494   3.783   2.007   9.603 -0.6349 -0.7859 -1.2629
13685SOL     OW42495   3.589   7.388   7.775 -0.9291  0.1019  0.2315
13685SOL    HW142496   3.591   7.323   7.846 -2.7848  0.2612  0.4783
13685SOL    HW242497   3.502   7.427   7.781 -1.1554  0.0982 -2.1753
13686SOL     OW42498   4.181   6.573   2.028 -0.4285 -0.1298  0.3994
13686SOL    HW142499   4.237   6.610   1.960 -2.2151  0.5205 -0.8068
13686SOL    HW242500   4.222   6.491   2.052  3.3622  2.1443  2.7128
13687SOL     OW42501   5.697   0.118  11.072  0.0620  0.8457 -0.0006
13687SOL    HW142502   5.662   0.080  10.991  0.0590  1.8080 -0.4544
13687SOL    HW242503   5.623   0.164  11.111  0.0193  0.2607  0.6491
13688SOL     OW42504   2.342   0.316   0.623  0.3355 -0.0211  0.4070
13688SOL    HW142505   2.334   0.229   0.583 -0.2006 -0.1426  0.7631
13688SOL    HW242506   2.310   0.376   0.556  1.0156 -0.0608  0.0357
13689SOL     OW42507   7.354   7.295   7.440  0.3767  0.0109 -0.5667
13689SOL    HW142508   7.395   7.369   7.395 -0.8025  2.7506  2.4123
13689SOL    HW242509   7.422   7.262   7.499 -0.0821  1.2584  0.7412
13690SOL     OW42510   0.781   3.581   8.182 -0.4468 -0.2239 -0.9024
13690SOL    HW142511   0.810   3.672   8.179 -1.0070 -0.0356 -0.7468
13690SOL    HW242512   0.760   3.559   8.091  1.6312 -0.8589 -1.2840
13691SOL     OW42513   2.155   4.323  11.314  0.9484 -0.8047  0.2508
13691SOL    HW142514   2.114   4.287  11.393 -0.4572 -0.6648 -0.3850
13691SOL    HW242515   2.115   4.275  11.242 -1.0740  1.9703 -0.6506
13692SOL     OW42516   0.087   1.740  12.218  0.1855  0.3632 -0.2195
13692SOL    HW142517   0.063   1.830  12.239 -0.2350  0.0619  0.6670
13692SOL    HW242518   0.142   1.712  12.291 -0.0867 -0.2439 -0.2356
13693SOL     OW42519   5.090   4.266  11.554 -0.5729 -0.4292 -0.2142
13693SOL    HW142520   5.003   4.226  11.550 -0.7480  0.0607 -3.2985
13693SOL    HW242521   5.149   4.198  11.522 -0.2977  0.2840 -1.2717
13694SOL     OW42522   3.589   7.266   2.107  0.1601  0.1573  0.2898
13694SOL    HW142523   3.614   7.308   2.189 -0.4027  0.6483  0.2138
13694SOL    HW242524   3.671   7.256   2.058  0.5345 -0.3778  1.0171
13695SOL     OW42525   6.410   1.694   7.690  0.1850 -0.2092 -0.4247
13695SOL    HW142526   6.368   1.609   7.677 -0.5154 -0.1524  1.1789
13695SOL    HW242527   6.492   1.673   7.734 -0.2548 -0.0477  0.5035
13696SOL     OW42528   0.926   3.802   1.820  0.0687 -0.0418 -0.5132
13696SOL    HW142529   0.999   3.853   1.852  0.3386 -0.6531 -0.1416
13696SOL    HW242530   0.868   3.792   1.896 -0.6711  0.8860 -0.9332
13697SOL     OW42531   3.342   5.811  11.429 -0.4274  0.2896 -0.2409
13697SOL    HW142532   3.292   5.730  11.436 -0.6886  0.3027 -1.6695
13697SOL    HW242533   3.347   5.828  11.335  1.1324  1.0049 -0.0540
13698SOL     OW42534   1.048   3.011   8.533 -0.2579  0.1836 -0.5850
13698SOL    HW142535   0.980   2.973   8.588 -0.3210  0.2385 -0.6245
13698SOL    HW242536   1.061   3.100   8.566  1.2538 -0.4864  0.7427
13699SOL     OW42537   7.030   5.335   7.747  0.4573 -0.2909  0.0416
13699SOL    HW142538   7.071   5.377   7.823  1.4339 -1.7992  0.3888
13699SOL    HW242539   6.977   5.404   7.707  0.5917  0.7634  1.6048
13700SOL     OW42540   7.263   2.451   2.783 -0.7693  0.0622  0.3229
13700SOL    HW142541   7.289   2.483   2.697  0.0516  0.1419  0.5980
13700SOL    HW242542   7.192   2.389   2.764 -0.2040 -0.3735 -0.4605
13701SOL     OW42543   7.599   5.524   6.361  0.0624  0.2541  0.0966
13701SOL    HW142544   7.677   5.571   6.389 -0.2018  0.9335 -0.2745
13701SOL    HW242545   7.586   5.457   6.428  0.4908  0.6681  0.6055
13702SOL     OW42546   5.790   5.724   3.816 -0.0402 -0.2188  0.2605
13702SOL    HW142547   5.758   5.722   3.725 -1.4737  1.9454  0.6481
13702SOL    HW242548   5.712   5.709   3.869  0.7481 -1.2087  1.1641
13703SOL     OW42549   1.699   6.974   2.283  0.0528 -0.3660 -0.1883
13703SOL    HW142550   1.713   7.068   2.270 -0.0779 -0.6703 -3.1245
13703SOL    HW242551   1.768   6.948   2.344  1.4809  1.2430 -1.0397
13704SOL     OW42552   7.159   0.228   8.773  0.1706 -0.1120  0.1155
13704SOL    HW142553   7.169   0.279   8.692  0.4396  0.9385  0.7919
13704SOL    HW242554   7.244   0.238   8.817 -0.3827  0.3286  1.0946
13705SOL     OW42555   5.368   2.233   1.735  0.1540  0.1219 -0.2672
13705SOL    HW142556   5.396   2.207   1.646 -0.9149  0.4652 -0.7155
13705SOL    HW242557   5.358   2.150   1.782  1.4627 -0.0377 -0.2145
13706SOL     OW42558   3.298   6.867   1.129 -0.3395 -0.5188 -0.0110
13706SOL    HW142559   3.365   6.809   1.092 -0.1599  0.2049 -0.8360
13706SOL    HW242560   3.331   6.888   1.217  0.9104  0.4419 -0.6784
13707SOL     OW42561   1.437   0.768  11.548 -0.8723  0.4175 -0.0686
13707SOL    HW142562   1.368   0.826  11.516 -0.1364  1.2093 -0.2216
13707SOL    HW242563   1.518   0.803  11.511 -0.5488 -1.5491 -1.4040
13708SOL     OW42564   0.145   0.306   1.707 -0.1949  0.0191 -0.1926
13708SOL    HW142565   0.060   0.300   1.664  0.6212  0.4959 -1.9401
13708SOL    HW242566   0.188   0.222   1.688 -0.4201 -0.4279  1.1086
13709SOL     OW42567   0.898   7.339   1.026 -0.5679  0.4350  0.2914
13709SOL    HW142568   0.853   7.263   0.989 -2.6255  0.9520  1.5485
13709SOL    HW242569   0.975   7.350   0.971 -0.9998 -1.6331 -0.8546
13710SOL     OW42570   7.592   1.891   2.113  0.1249 -0.3412 -0.3729
13710SOL    HW142571   7.530   1.955   2.082  2.9115  1.8544 -1.8417
13710SOL    HW242572   7.673   1.940   2.129  1.5226 -2.9520  1.5778
13711SOL     OW42573   6.572   6.422   3.716 -0.6377 -0.2758 -0.0160
13711SOL    HW142574   6.551   6.505   3.672  0.1759 -0.6556 -1.1692
13711SOL    HW242575   6.626   6.375   3.653 -1.9882 -2.1633  0.1495
13712SOL     OW42576   5.749   0.444   6.780 -0.1663  0.4917 -0.7358
13712SOL    HW142577   5.711   0.529   6.759  0.7932  1.1617  0.1253
13712SOL    HW242578   5.685   0.404   6.839  0.2671  1.4678  0.4398
13713SOL     OW42579   5.278   2.429   2.779 -0.3465  0.4835 -0.3414
13713SOL    HW142580   5.304   2.506   2.829  1.1936 -0.8211  0.9958
13713SOL    HW242581   5.355   2.407   2.726 -0.0123 -1.1960  0.7446
13714SOL     OW42582   7.787   6.818  11.285 -0.4113 -0.7276 -0.1726
13714SOL    HW142583   7.828   6.823  11.372 -1.4202 -0.6148  0.3035
13714SOL    HW242584   7.724   6.747  11.292 -0.2846 -0.9242 -0.9180
13715SOL     OW42585   6.377   0.149   7.745 -0.3792 -0.3177  0.6270
13715SOL    HW142586   6.406   0.160   7.655 -2.0582 -2.6966 -0.3036
13715SOL    HW242587   6.286   0.177   7.744 -1.0319 -2.2824  1.0370
13716SOL     OW42588   5.334   2.563   1.417 -0.4801 -0.3839 -0.7110
13716SOL    HW142589   5.378   2.637   1.376 -0.4983 -0.2661 -0.5178
13716SOL    HW242590   5.275   2.529   1.350  2.0611 -2.4480 -2.0937
13717SOL     OW42591   5.522   1.571   4.450 -0.1345  0.2088  0.0741
13717SOL    HW142592   5.461   1.641   4.473  0.1818 -0.0936  2.0129
13717SOL    HW242593   5.470   1.509   4.399 -0.8823  0.9764 -0.1044
13718SOL     OW42594   6.350   0.846   2.581 -0.1459 -0.3914 -0.5911
13718SOL    HW142595   6.414   0.890   2.525  3.0145 -1.3193  2.0196
13718SOL    HW242596   6.281   0.912   2.594  1.3411  1.5038 -1.7138
13719SOL     OW42597   2.072   4.516   4.371 -0.0627 -0.1434  0.0113
13719SOL    HW142598   2.104   4.438   4.416 -0.7481 -1.2396 -1.3283
13719SOL    HW242599   2.148   4.573   4.365  0.4831 -0.7554  0.9008
13720SOL     OW42600   2.372   5.337   9.273  0.6969 -0.2437 -0.1665
13720SOL    HW142601   2.464   5.312   9.271  0.8715  0.1432  1.6283
13720SOL    HW242602   2.326   5.260   9.239  1.6653 -0.3501 -1.3297
13721SOL     OW42603   0.161   6.396   4.925 -0.3510 -0.2760 -0.1357
13721SOL    HW142604   0.097   6.397   4.997 -1.7268 -1.4414 -1.2698
13721SOL    HW242605   0.227   6.333   4.952 -0.0565  0.4054  0.7485
13722SOL     OW42606   7.521   6.504   0.910 -0.1130  0.2125 -0.5746
13722SOL    HW142607   7.438   6.501   0.863 -0.2314 -1.1038 -0.3217
13722SOL    HW242608   7.558   6.416   0.899  0.7328  0.4506  0.2362
13723SOL     OW42609   4.569   5.998  10.687 -0.2872 -0.0615  0.1272
13723SOL    HW142610   4.480   6.019  10.658 -1.2854  0.6268  3.2729
13723SOL    HW242611   4.570   5.903  10.693  0.1513 -0.2989 -2.3807
13724SOL     OW42612   4.969   1.439   3.700 -0.0863  0.2052  0.8206
13724SOL    HW142613   5.051   1.452   3.747 -0.1741 -0.0517  1.0432
13724SOL    HW242614   4.960   1.344   3.692 -1.2647  0.1419  2.4198
13725SOL     OW42615   6.082   1.599  12.009  0.3355 -0.1306 -0.4997
13725SOL    HW142616   6.176   1.613  12.012  0.4816 -1.2372  1.0647
13725SOL    HW242617   6.046   1.657  12.075  0.1918 -1.3841  0.5727
13726SOL     OW42618   1.606   1.542   5.750 -0.0045  0.3678  0.3853
13726SOL    HW142619   1.528   1.502   5.711  0.7084 -0.8178  0.1108
13726SOL    HW242620   1.604   1.513   5.842  0.9200 -1.0274  0.0072
13727SOL     OW42621   5.024   0.540   7.088  0.0922  0.2989 -0.2325
13727SOL    HW142622   5.025   0.464   7.028 -0.1637  1.0538 -1.2246
13727SOL    HW242623   4.976   0.509   7.165 -0.3079 -0.4499 -0.7610
13728SOL     OW42624   5.187   4.297   4.974  0.1554 -0.2704  0.0943
13728SOL    HW142625   5.129   4.266   5.043  0.7357 -0.1233  0.6532
13728SOL    HW242626   5.244   4.222   4.955  0.1419 -0.2399 -0.0696
13729SOL     OW42627   6.103   1.619   7.257 -0.6166  0.3051  0.3343
13729SOL    HW142628   6.066   1.651   7.340  0.9927  3.1961  0.0924
13729SOL    HW242629   6.032   1.631   7.194 -1.6811 -1.4226  1.1083
13730SOL     OW42630   7.785   3.465  10.901  0.2160 -0.0716  0.6877
13730SOL    HW142631   7.739   3.461  10.817 -0.8294  1.2555  1.1641
13730SOL    HW242632   7.870   3.424  10.884  0.7289  1.7248 -1.4917
13731SOL     OW42633   5.870   0.324   1.398  0.4586 -0.2085 -0.6790
13731SOL    HW142634   5.804   0.351   1.462  1.3673 -0.8672  0.6034
13731SOL    HW242635   5.917   0.404   1.376 -0.5790  0.2172 -1.3925
13732SOL     OW42636   5.860   2.090   8.932  0.1433  0.5390 -0.0292
13732SOL    HW142637   5.819   2.145   8.865  0.5343  1.9466  0.8451
13732SOL    HW242638   5.949   2.125   8.941 -0.0723  0.7754  1.6085
13733SOL     OW42639   3.278   6.319   1.050 -0.0913  0.2320 -0.2302
13733SOL    HW142640   3.324   6.268   1.116 -1.6745  0.7150  1.3115
13733SOL    HW242641   3.319   6.406   1.053  2.0102 -0.5887 -2.2397
13734SOL     OW42642   7.824   3.971  10.245 -0.2500 -0.2656  0.3609
13734SOL    HW142643   7.776   3.943  10.323 -3.2922 -1.0967 -1.6264
13734SOL    HW242644   7.812   4.066  10.243 -0.3957 -0.2734  0.7382
13735SOL     OW42645   6.533   7.227   8.973 -0.7385 -0.5039 -0.2014
13735SOL    HW142646   6.528   7.132   8.980 -0.3739 -0.4307  1.4816
13735SOL    HW242647   6.457   7.259   9.023 -0.8310  0.1013 -0.7077
13736SOL     OW42648   6.559   0.118   9.030 -0.5107 -0.7461 -0.1940
13736SOL    HW142649   6.512   0.185   8.978  1.4257 -0.2330 -1.3692
13736SOL    HW242650   6.587   0.054   8.966  0.4374 -1.0136  0.4767
13737SOL     OW42651   2.692   4.750  10.909 -0.0972 -0.0859 -0.0718
13737SOL    HW142652   2.634   4.826  10.905 -0.9207 -0.6870  0.1438
13737SOL    HW242653   2.716   4.733  10.817  0.6016  0.7976 -0.0676
13738SOL     OW42654   6.565   4.388  11.890  0.5081 -0.2077 -0.1598
13738SOL    HW142655   6.522   4.381  11.975  0.4032 -0.4556 -0.2339
13738SOL    HW242656   6.535   4.472  11.856  1.1910  0.2780  0.4029
13739SOL     OW42657   6.067   7.804   1.657  0.5375  0.2387 -0.6009
13739SOL    HW142658   6.043   7.888   1.619 -1.4070 -1.3115 -3.1975
13739SOL    HW242659   5.984   7.768   1.689  1.5095 -0.2614  1.5277
13740SOL     OW42660   1.085   4.901   8.123 -0.3207 -0.8111 -0.2172
13740SOL    HW142661   0.996   4.938   8.127 -0.1879 -0.3986 -0.8110
13740SOL    HW242662   1.139   4.974   8.093  0.1412 -1.1827 -0.2913
13741SOL     OW42663   7.920   5.022   4.310  0.1896  0.0375 -0.0095
13741SOL    HW142664   7.931   5.010   4.404  0.2122 -1.7380 -0.2103
13741SOL    HW242665   7.844   5.080   4.302 -2.4865 -3.0341  1.0924
13742SOL     OW42666   7.757   0.092   3.614 -0.2638 -0.4397 -0.4000
13742SOL    HW142667   7.762   0.151   3.690 -0.9868 -1.0432  0.1336
13742SOL    HW242668   7.700   0.139   3.552  0.4861  0.1415 -0.6571
13743SOL     OW42669   3.450   6.659   5.972  0.1690 -0.1593  0.3585
13743SOL    HW142670   3.515   6.650   5.902 -1.3048  1.0834 -1.2725
13743SOL    HW242671   3.485   6.728   6.028  0.7669 -0.2557  0.1168
13744SOL     OW42672   5.502   6.483  12.262 -0.3052 -0.3646 -0.5586
13744SOL    HW142673   5.410   6.496  12.240 -1.6605 -1.4149  3.6846
13744SOL    HW242674   5.523   6.397  12.227 -0.5745  0.2205 -2.2891
13745SOL     OW42675   6.078   4.531   6.914  0.5138 -0.6949  0.0266
13745SOL    HW142676   6.010   4.513   6.979  1.0151  1.5989  1.3056
13745SOL    HW242677   6.043   4.606   6.865  1.9170  0.2865  0.4747
13746SOL     OW42678   5.744   6.028  10.652 -0.0736  0.6735 -0.2168
13746SOL    HW142679   5.691   6.046  10.574 -1.0412  0.2142  0.3066
13746SOL    HW242680   5.729   6.102  10.709 -1.4241 -0.1666  0.5721
13747SOL     OW42681   1.913   4.508   2.541 -0.7041  0.4364  0.1710
13747SOL    HW142682   1.916   4.417   2.569 -0.8550  0.2701 -0.3449
13747SOL    HW242683   1.990   4.548   2.581 -0.1793 -0.1157 -0.2847
13748SOL     OW42684   5.625   4.634   8.646 -0.1957  0.5773 -0.0760
13748SOL    HW142685   5.576   4.715   8.636 -0.8262  0.7346  3.1855
13748SOL    HW242686   5.666   4.641   8.732  1.0947 -1.8947 -0.3876
13749SOL     OW42687   1.568   6.782  10.644 -0.1289 -0.0337  0.2592
13749SOL    HW142688   1.538   6.770  10.554  0.5541 -0.3455  0.0656
13749SOL    HW242689   1.663   6.773  10.639 -0.0375  0.5180  0.9238
13750SOL     OW42690   2.409   5.364   0.255  0.0751  0.1655 -0.4882
13750SOL    HW142691   2.365   5.424   0.196  2.2356  2.0615 -0.3084
13750SOL    HW242692   2.388   5.396   0.343  2.0885  1.4352 -0.4033
13751SOL     OW42693   7.818   3.703  10.064 -0.2662 -0.3315  0.1278
13751SOL    HW142694   7.805   3.758  10.141  0.9588  1.1687 -0.6686
13751SOL    HW242695   7.839   3.765   9.994  2.0242 -1.8669 -0.6475
13752SOL     OW42696   5.091   0.837   0.302 -0.4528 -0.1464  0.2541
13752SOL    HW142697   5.102   0.868   0.392  1.1241 -1.2378  0.4702
13752SOL    HW242698   5.137   0.903   0.249 -2.0435  0.9174  0.1302
13753SOL     OW42699   4.350   1.380   1.529  0.5129  0.0470  0.4506
13753SOL    HW142700   4.330   1.287   1.529 -0.7183  0.3049  0.4189
13753SOL    HW242701   4.278   1.421   1.578 -0.7600  1.3415 -2.3154
13754SOL     OW42702   7.232   0.562  11.686  0.4356  0.4849 -0.4373
13754SOL    HW142703   7.140   0.551  11.711  0.5867  1.2658  0.5344
13754SOL    HW242704   7.265   0.473  11.676 -0.2275  0.1855 -0.0512
13755SOL     OW42705   5.194   6.464   9.154 -0.2920  0.7363 -0.1077
13755SOL    HW142706   5.257   6.516   9.205  0.4752  0.8833 -1.1705
13755SOL    HW242707   5.109   6.487   9.191  0.3298 -0.4820  2.2940
13756SOL     OW42708   5.642   1.265   1.939 -0.2291 -0.1940  0.1240
13756SOL    HW142709   5.575   1.299   1.998  0.4276  2.2633 -0.4521
13756SOL    HW242710   5.673   1.185   1.983  0.0801  1.3825  3.0565
13757SOL     OW42711   7.499   5.213   0.846 -0.2190  0.0928 -0.5010
13757SOL    HW142712   7.541   5.268   0.780  0.3968  0.2551  0.0089
13757SOL    HW242713   7.557   5.137   0.854  0.0832  0.3925  0.3213
13758SOL     OW42714   6.803   0.557   7.842  0.2986  0.6825  0.4763
13758SOL    HW142715   6.732   0.620   7.832  0.1341  0.2127 -1.8950
13758SOL    HW242716   6.762   0.472   7.827  1.1552  0.3184  0.1473
13759SOL     OW42717   3.836   7.708   0.802  0.0486  0.0339 -0.0903
13759SOL    HW142718   3.805   7.670   0.719 -1.8593  0.2972  0.4565
13759SOL    HW242719   3.868   7.795   0.778 -0.3816  0.0640 -0.5687
13760SOL     OW42720   7.657   2.901   4.749  0.1428 -0.7772 -0.4221
13760SOL    HW142721   7.654   2.992   4.779  0.8899 -0.9665  0.2611
13760SOL    HW242722   7.750   2.877   4.753  0.3716 -0.7280 -3.2207
13761SOL     OW42723   6.771   7.212   5.260  0.2946  0.0559  0.0825
13761SOL    HW142724   6.758   7.265   5.339  1.0021  1.0860 -0.4721
13761SOL    HW242725   6.855   7.241   5.224  1.3977 -2.3892  0.4654
13762SOL     OW42726   1.839   0.539   3.201  0.7039  0.0847 -0.1133
13762SOL    HW142727   1.800   0.626   3.191  1.1829  0.2848 -0.2779
13762SOL    HW242728   1.829   0.497   3.116 -2.7539 -1.4176  0.8642
13763SOL     OW42729   5.879   0.073   0.887 -0.2564  0.6889 -0.1669
13763SOL    HW142730   5.808   0.043   0.831  0.2685 -0.2551 -0.3465
13763SOL    HW242731   5.926   0.137   0.834 -0.3308  0.5103 -0.4496
13764SOL     OW42732   7.516   2.352   8.769  0.8236  0.4054  0.3573
13764SOL    HW142733   7.493   2.444   8.784  2.4436  0.7715  0.8219
13764SOL    HW242734   7.612   2.351   8.769  0.8416 -1.3537  0.7571
13765SOL     OW42735   0.415   3.634   1.889  0.7508 -0.6811 -0.2235
13765SOL    HW142736   0.376   3.550   1.868  0.5062 -1.3496  2.4475
13765SOL    HW242737   0.499   3.612   1.931  0.9137  0.4118  0.0658
13766SOL     OW42738   0.819   3.891   4.079  0.5910  0.3311 -0.0988
13766SOL    HW142739   0.775   3.955   4.135  0.1779 -0.0190 -0.0217
13766SOL    HW242740   0.834   3.937   3.997 -0.6662  0.1908 -0.4181
13767SOL     OW42741   0.981   6.965   0.642  0.1589 -0.0881  0.1184
13767SOL    HW142742   0.920   6.965   0.568  1.7373  0.8513 -1.2691
13767SOL    HW242743   1.064   6.995   0.604  1.6644 -1.8884  1.7839
13768SOL     OW42744   7.185   5.568   1.289  0.3064  0.0782  0.4376
13768SOL    HW142745   7.094   5.598   1.287  0.4116  0.3621 -0.0089
13768SOL    HW242746   7.214   5.584   1.379  0.0649  0.4292  0.4511
13769SOL     OW42747   4.077   6.394   6.957 -0.0987  0.4960  0.2040
13769SOL    HW142748   4.024   6.336   6.902 -0.7441 -0.7449  2.0483
13769SOL    HW242749   4.074   6.479   6.913  0.1429 -0.6255 -2.1244
13770SOL     OW42750   1.397   3.767   3.761 -0.3299  0.0028 -0.3429
13770SOL    HW142751   1.455   3.770   3.837 -2.6049  1.7625  1.5178
13770SOL    HW242752   1.360   3.679   3.762 -0.3838  0.0173  0.7191
13771SOL     OW42753   3.688   1.170   9.773 -0.1268 -0.1535 -0.4833
13771SOL    HW142754   3.771   1.174   9.726 -1.4557 -0.3270 -3.0596
13771SOL    HW242755   3.692   1.088   9.822  1.6032  0.3795  0.3494
13772SOL     OW42756   3.352   1.545  10.313  0.0671 -0.6604  0.4587
13772SOL    HW142757   3.385   1.575  10.229 -1.1392  0.2659  0.2961
13772SOL    HW242758   3.303   1.465  10.293 -0.4449 -0.2949  0.2249
13773SOL     OW42759   5.314   4.693   5.215  0.5374  0.6479  0.9140
13773SOL    HW142760   5.331   4.655   5.129 -0.2450  2.9769 -0.3461
13773SOL    HW242761   5.261   4.627   5.260  0.2459 -0.2617 -0.6910
13774SOL     OW42762   1.074   3.421  11.763 -0.2983 -0.3979 -0.0821
13774SOL    HW142763   1.050   3.328  11.766 -1.5346 -0.1259 -0.7912
13774SOL    HW242764   1.022   3.457  11.691  1.4262  0.5094 -0.9334
13775SOL     OW42765   7.183   1.292   3.441  0.5641  0.1791 -0.0106
13775SOL    HW142766   7.239   1.369   3.447 -0.0523  0.5832  0.7791
13775SOL    HW242767   7.205   1.239   3.518  0.3020  0.0436 -0.0250
13776SOL     OW42768   5.448   0.087   5.136 -0.5299  0.1094  0.1925
13776SOL    HW142769   5.503   0.041   5.199  1.9814  2.9966  0.3212
13776SOL    HW242770   5.489   0.069   5.051 -1.7557 -0.8441 -0.2210
13777SOL     OW42771   2.898   6.747   7.248 -0.1585 -0.0113 -0.2079
13777SOL    HW142772   2.825   6.691   7.275 -0.3948  0.0799 -0.6353
13777SOL    HW242773   2.859   6.808   7.185 -0.0250  1.0152  0.6855
13778SOL     OW42774   3.996   0.090   3.845  0.5401  0.3405 -0.2700
13778SOL    HW142775   3.973   0.013   3.897  1.5781  0.0269 -0.2458
13778SOL    HW242776   3.989   0.163   3.906  1.9347 -0.0479  0.4034
13779SOL     OW42777   4.789   1.562   5.282 -0.3906  0.3854 -0.3662
13779SOL    HW142778   4.882   1.578   5.298 -0.5342  0.6827  0.1989
13779SOL    HW242779   4.744   1.615   5.347 -0.9908  1.0139 -1.2812
13780SOL     OW42780   2.973   0.970   3.460  0.0215 -0.1915  0.0204
13780SOL    HW142781   2.968   0.954   3.555 -0.6510  3.0307  0.6380
13780SOL    HW242782   3.059   1.010   3.447  0.2306 -0.8806 -0.8185
13781SOL     OW42783   7.525   0.084   3.181 -0.4437  0.1348 -0.4419
13781SOL    HW142784   7.604   0.098   3.233 -0.4067  1.8531 -0.8979
13781SOL    HW242785   7.524  -0.010   3.162  1.1912  0.0057  0.0256
13782SOL     OW42786   1.692   5.942   6.324 -0.6112 -0.1246 -0.0367
13782SOL    HW142787   1.649   5.857   6.329 -0.8821  0.0634  0.8524
13782SOL    HW242788   1.779   5.922   6.290 -0.6100 -0.7828  0.3378
13783SOL     OW42789   4.726   2.851   0.728 -0.5783  0.4358  0.2602
13783SOL    HW142790   4.776   2.912   0.781 -0.6714  1.1492 -0.4558
13783SOL    HW242791   4.654   2.903   0.693 -2.9688 -0.9591  2.7328
13784SOL     OW42792   6.137   7.905   1.939 -0.2777 -0.4385 -0.4511
13784SOL    HW142793   6.051   7.937   1.915 -0.7513 -0.4594  1.1114
13784SOL    HW242794   6.172   7.972   1.998  1.2798  0.1474 -1.9333
13785SOL     OW42795   6.590   4.477   9.204  0.8023 -0.5467 -0.4027
13785SOL    HW142796   6.577   4.509   9.293  0.3608 -1.5260 -0.1016
13785SOL    HW242797   6.678   4.440   9.204  1.0299 -0.0158 -0.5461
13786SOL     OW42798   0.437   4.938   0.672 -0.5518  0.4764  0.1119
13786SOL    HW142799   0.408   4.957   0.762 -0.5879  0.8683  0.0180
13786SOL    HW242800   0.440   5.023   0.629  0.7423  0.4541  0.1183
13787SOL     OW42801   5.382   2.931   3.672  0.3731  0.0084 -0.1980
13787SOL    HW142802   5.294   2.967   3.662  0.8201  0.9002 -1.1977
13787SOL    HW242803   5.435   3.005   3.702  1.0516 -0.1526 -0.9698
13788SOL     OW42804   6.974   3.518   3.125  0.1781  0.5937 -0.0631
13788SOL    HW142805   6.879   3.513   3.141 -0.0734  0.0550 -1.5599
13788SOL    HW242806   6.997   3.431   3.093  1.0800  0.8909 -0.2381
13789SOL     OW42807   1.089   4.008   4.222  0.2265  0.4272 -0.2166
13789SOL    HW142808   1.100   4.089   4.172 -0.2135  0.7958  0.2716
13789SOL    HW242809   1.123   4.030   4.309 -1.1983  0.5434  0.3348
13790SOL     OW42810   7.806   6.722   0.503  0.4183  0.1039 -0.0832
13790SOL    HW142811   7.789   6.688   0.591  1.1300  0.0646  0.0525
13790SOL    HW242812   7.781   6.814   0.507 -1.5660 -0.3779 -0.4642
13791SOL     OW42813   2.446   3.169  10.585 -0.1430 -0.0349 -0.1522
13791SOL    HW142814   2.472   3.079  10.569  1.7272  0.1085  1.6066
13791SOL    HW242815   2.508   3.222  10.535 -1.6188  0.3310 -1.6885
13792SOL     OW42816   5.784   3.216   5.576  0.0904  0.1517  0.3362
13792SOL    HW142817   5.812   3.270   5.503 -1.8719 -0.4100 -0.9324
13792SOL    HW242818   5.750   3.278   5.640  0.8591  0.5978  0.3163
13793SOL     OW42819   4.676   0.785   1.145 -0.4147  0.4289  0.3865
13793SOL    HW142820   4.731   0.821   1.214 -0.6743  0.9510  0.3219
13793SOL    HW242821   4.707   0.827   1.065 -0.0317 -0.2676  0.1636
13794SOL     OW42822   6.516   0.692   3.136  0.4191  0.3131  0.3524
13794SOL    HW142823   6.460   0.663   3.208 -1.1018  1.1541 -0.4360
13794SOL    HW242824   6.487   0.641   3.060  0.6613  0.8196 -0.0875
13795SOL     OW42825   2.218   3.421   4.361 -0.2102 -0.0971  0.7458
13795SOL    HW142826   2.219   3.433   4.456 -1.0544 -1.3824  0.9440
13795SOL    HW242827   2.126   3.426   4.336  0.1123  1.8047 -0.2636
13796SOL     OW42828   4.259   7.777  10.577  0.0295  0.7041 -0.3998
13796SOL    HW142829   4.192   7.729  10.527  0.4563  0.7131 -0.9889
13796SOL    HW242830   4.224   7.781  10.665 -0.3259 -0.1190 -0.4903
13797SOL     OW42831   2.737   6.639   4.637 -0.2391 -0.4131 -0.2080
13797SOL    HW142832   2.810   6.585   4.607 -0.9916 -1.5229 -0.1087
13797SOL    HW242833   2.667   6.623   4.573 -0.3706  0.7201 -0.3658
13798SOL     OW42834   3.186   3.621   8.679 -0.3039  0.3198  0.6730
13798SOL    HW142835   3.108   3.676   8.685 -0.5099 -0.0777  1.8845
13798SOL    HW242836   3.159   3.547   8.624 -1.2252 -0.5056  2.1818
13799SOL     OW42837   0.230   7.583   5.736 -0.1948  0.2123  0.2286
13799SOL    HW142838   0.209   7.608   5.646  0.3866  0.2917  0.1099
13799SOL    HW242839   0.159   7.619   5.788 -0.3326  0.5116 -0.1577
13800SOL     OW42840   3.438   5.155   9.721 -0.0684 -0.0343 -0.0614
13800SOL    HW142841   3.418   5.242   9.756 -0.0539 -0.6119  1.4473
13800SOL    HW242842   3.503   5.119   9.780  0.7388 -0.6762 -1.2904
13801SOL     OW42843   4.738   4.898   3.254  0.1597  0.2834  0.3772
13801SOL    HW142844   4.646   4.924   3.256 -0.1776 -0.3137 -2.6899
13801SOL    HW242845   4.737   4.805   3.279 -0.2449 -0.0358 -0.7851
13802SOL     OW42846   2.682   3.511   4.287  0.3264 -0.3998  0.2822
13802SOL    HW142847   2.746   3.479   4.223  2.2985  2.0163  0.8751
13802SOL    HW242848   2.608   3.540   4.234  2.2480  2.3510 -1.1738
13803SOL     OW42849   1.823   0.534   4.979  0.2699  0.4673 -0.4005
13803SOL    HW142850   1.767   0.563   4.906 -1.5173 -0.0077  0.7108
13803SOL    HW242851   1.787   0.580   5.055 -1.6534 -3.2161  1.1531
13804SOL     OW42852   7.645   1.489   9.347  0.0097  0.5970 -0.3871
13804SOL    HW142853   7.722   1.466   9.399  0.8254 -0.0974 -1.8368
13804SOL    HW242854   7.607   1.563   9.393  0.6794  0.0051  1.1955
13805SOL     OW42855   3.940   5.300  12.006  0.2363 -0.1174  0.0685
13805SOL    HW142856   3.907   5.220  12.048  1.1370 -0.9934 -0.8226
13805SOL    HW242857   3.865   5.358  12.002 -0.4846 -0.9898  0.6085
13806SOL     OW42858   0.223   6.197   2.126 -0.1582  0.2199  0.5626
13806SOL    HW142859   0.199   6.260   2.057 -2.1306 -2.6894 -1.6442
13806SOL    HW242860   0.253   6.120   2.078 -1.5871 -1.9514  2.9350
13807SOL     OW42861   5.330   4.497   4.526  0.0397  0.4826  0.1397
13807SOL    HW142862   5.274   4.442   4.472 -2.9230 -0.0683  3.3883
13807SOL    HW242863   5.386   4.436   4.573  2.8507  0.9764 -2.2640
13808SOL     OW42864   6.460   5.616   5.728 -0.0807  0.2514 -0.1780
13808SOL    HW142865   6.512   5.561   5.787 -0.9939  0.0924  0.5070
13808SOL    HW242866   6.375   5.623   5.771 -0.1064  1.8827 -0.4554
13809SOL     OW42867   2.912   1.191   9.606  0.0112 -0.0855  0.2661
13809SOL    HW142868   2.836   1.137   9.630 -0.0401  0.3225  1.0823
13809SOL    HW242869   2.875   1.276   9.584  0.0925 -0.3678 -1.0165
13810SOL     OW42870   3.842   7.445  12.268 -0.3159  0.1571 -0.2621
13810SOL    HW142871   3.754   7.407  12.261 -0.1851 -0.9481  2.6280
13810SOL    HW242872   3.831   7.536  12.242 -2.1594 -0.1586 -0.7098
13811SOL     OW42873   3.182   3.054   5.699 -0.5657  0.1402 -0.2055
13811SOL    HW142874   3.225   2.994   5.759 -0.8755 -0.4702 -0.5817
13811SOL    HW242875   3.233   3.135   5.704 -0.0892 -0.1873  0.2327
13812SOL     OW42876   3.970   4.447   9.382 -0.5228  0.0787  0.2450
13812SOL    HW142877   4.033   4.400   9.327  0.8890  1.0683  0.9508
13812SOL    HW242878   3.988   4.539   9.366 -0.5631  0.3810  1.8116
13813SOL     OW42879   7.822   2.017   2.010 -0.1515 -0.4483  0.1900
13813SOL    HW142880   7.875   2.015   1.930 -0.0602 -0.0749  0.2390
13813SOL    HW242881   7.860   2.087   2.062 -0.0917 -0.8132  0.6483
13814SOL     OW42882   1.990   5.625   8.333 -0.2249 -0.6207  0.8169
13814SOL    HW142883   2.018   5.705   8.288 -1.4727  0.4233  1.7825
13814SOL    HW242884   2.069   5.591   8.374  0.6394 -0.7942 -0.9048
13815SOL     OW42885   4.439   0.109   4.566 -0.0899  0.3862  0.4011
13815SOL    HW142886   4.433   0.205   4.574 -0.4255  0.2874  1.3626
13815SOL    HW242887   4.349   0.079   4.566 -0.0439  0.1492 -1.2375
13816SOL     OW42888   5.619   2.862   7.264  0.2403  0.3524 -0.0289
13816SOL    HW142889   5.700   2.836   7.307  0.0586  0.2847  0.2725
13816SOL    HW242890   5.550   2.836   7.324 -0.1582 -1.7699 -1.3194
13817SOL     OW42891   5.841   4.855  12.178  0.2031  0.2271 -0.4113
13817SOL    HW142892   5.809   4.943  12.155  0.1481 -0.0337 -1.4040
13817SOL    HW242893   5.771   4.796  12.148 -0.0080 -0.1301  0.7441
13818SOL     OW42894   2.786   2.990  11.458  0.5759  0.2349 -0.3906
13818SOL    HW142895   2.846   3.064  11.457 -1.0329  1.6340  0.7516
13818SOL    HW242896   2.841   2.915  11.484  1.9160  1.3346  0.0742
13819SOL     OW42897   3.955   5.385   6.289 -0.2906 -0.1103  0.2762
13819SOL    HW142898   4.033   5.365   6.342  0.3914  2.6456  0.4724
13819SOL    HW242899   3.883   5.385   6.352  0.2928  1.7117  0.9938
13820SOL     OW42900   7.503   1.390   1.256  0.5437  0.0638 -0.5778
13820SOL    HW142901   7.437   1.322   1.242  2.0674 -1.6327  0.1505
13820SOL    HW242902   7.509   1.436   1.172 -0.5551 -0.6537 -1.0660
13821SOL     OW42903   4.206   5.991   0.068  0.1705 -0.3931 -0.3566
13821SOL    HW142904   4.204   6.062   0.004  1.1684 -0.1102 -0.0890
13821SOL    HW242905   4.193   6.034   0.153  0.2162 -0.5970 -0.2448
13822SOL     OW42906   7.496   5.400   8.294  0.1215 -0.2916  0.2482
13822SOL    HW142907   7.418   5.362   8.255 -1.6310  1.4252  1.8533
13822SOL    HW242908   7.551   5.424   8.219 -1.7024  0.0898 -1.0280
13823SOL     OW42909   1.227   3.249  12.042 -0.0547  0.0301 -0.1072
13823SOL    HW142910   1.249   3.225  11.952  0.6312 -0.3172  0.1414
13823SOL    HW242911   1.201   3.167  12.083  2.2871 -0.3544  0.7459
13824SOL     OW42912   0.392   6.896   2.111 -0.3382 -0.0115  0.1105
13824SOL    HW142913   0.423   6.809   2.136 -0.7087 -0.6552 -1.5134
13824SOL    HW242914   0.471   6.951   2.111  0.3475 -0.9480 -1.2134
13825SOL     OW42915   6.361   3.654  10.524  0.3499  0.1322  0.2546
13825SOL    HW142916   6.393   3.678  10.611 -0.5551  0.0010  0.6367
13825SOL    HW242917   6.337   3.561  10.532 -0.4053  0.3060  0.0737
13826SOL     OW42918   3.165   0.814   2.096  0.3761  0.1405 -0.1143
13826SOL    HW142919   3.234   0.760   2.058  0.8856  0.8493 -0.2131
13826SOL    HW242920   3.085   0.788   2.050  0.5881 -0.6269 -0.0560
13827SOL     OW42921   5.171   6.147   9.590  0.0101 -0.2001 -1.2113
13827SOL    HW142922   5.104   6.115   9.650  0.6592  0.2033 -0.2407
13827SOL    HW242923   5.154   6.241   9.583  2.1823  0.4941  1.3902
13828SOL     OW42924   3.562   6.715   7.635 -0.9097  0.5271  0.0623
13828SOL    HW142925   3.548   6.810   7.635 -2.3951  0.3357 -0.5769
13828SOL    HW242926   3.640   6.703   7.579  0.2785  1.4534  1.4385
13829SOL     OW42927   4.053   2.222   7.020  0.5414 -0.4240  0.1845
13829SOL    HW142928   4.052   2.182   6.934  0.2402 -1.5493  0.6982
13829SOL    HW242929   3.997   2.300   7.011 -2.5630 -2.4657  0.2266
13830SOL     OW42930   7.571   0.960   3.817  0.2957  0.0035 -0.0219
13830SOL    HW142931   7.624   0.881   3.823  1.7846  0.8831 -0.7784
13830SOL    HW242932   7.554   0.971   3.723  0.5542  0.8242  0.0133
13831SOL     OW42933   4.038   1.759   1.392 -0.3489  0.2659 -0.3446
13831SOL    HW142934   4.105   1.798   1.448 -0.1704  0.6788 -0.8344
13831SOL    HW242935   4.073   1.766   1.303  0.2070 -2.0658 -0.3738
13832SOL     OW42936   1.553   7.603   3.041 -0.1203 -0.3492 -0.0394
13832SOL    HW142937   1.638   7.619   3.081  0.3197 -1.0504 -0.6795
13832SOL    HW242938   1.553   7.657   2.962 -0.1676 -0.5372 -0.1691
13833SOL     OW42939   7.027   6.318   7.857 -0.2496 -0.2465  0.2210
13833SOL    HW142940   7.103   6.261   7.853  1.0857  1.4290  0.6688
13833SOL    HW242941   7.053   6.396   7.809 -1.6848  0.3744  0.4084
13834SOL     OW42942   5.458   3.744   6.088 -0.0637  0.4420  0.1203
13834SOL    HW142943   5.384   3.713   6.140  0.7880 -1.5636  0.2028
13834SOL    HW242944   5.455   3.692   6.008 -0.3305  2.2755 -1.1220
13835SOL     OW42945   0.145   4.643   7.517  0.0265 -0.6051 -0.0919
13835SOL    HW142946   0.209   4.661   7.586  0.4518 -1.5580 -0.2233
13835SOL    HW242947   0.168   4.705   7.447 -0.6051  0.5833  0.7249
13836SOL     OW42948   0.774   4.633   0.109  0.2458  0.3000 -0.0501
13836SOL    HW142949   0.834   4.649   0.182 -1.1290 -0.6669  1.3561
13836SOL    HW242950   0.739   4.720   0.088  3.0470  1.1340 -1.8450
13837SOL     OW42951   1.279   6.806  11.464  0.4272  0.1653 -0.2474
13837SOL    HW142952   1.346   6.850  11.412  1.8021 -2.5824 -1.0064
13837SOL    HW242953   1.289   6.713  11.443 -1.7826 -0.6536  1.7758
13838SOL     OW42954   0.304   4.060   3.095 -0.2238 -0.0755 -0.0013
13838SOL    HW142955   0.324   4.152   3.078  1.9860 -0.4269  0.3663
13838SOL    HW242956   0.333   4.045   3.185 -2.0951 -0.7668  0.5363
13839SOL     OW42957   5.624   2.170   7.651  0.4099 -0.2052 -0.3106
13839SOL    HW142958   5.554   2.105   7.658 -0.5624  0.7997 -0.3522
13839SOL    HW242959   5.605   2.216   7.569  1.5269 -0.3740 -0.6722
13840SOL     OW42960   2.399   7.512   7.136  0.1634  0.0019  0.2099
13840SOL    HW142961   2.431   7.498   7.225  0.1837  2.2444  0.6113
13840SOL    HW242962   2.335   7.583   7.145  0.1945  0.2860 -1.5714
13841SOL     OW42963   3.533   7.469   0.128 -0.4219 -0.4821  0.3487
13841SOL    HW142964   3.566   7.450   0.040 -2.3125  2.1601 -1.0607
13841SOL    HW242965   3.606   7.515   0.171 -0.3894  0.6724 -0.8634
13842SOL     OW42966   3.507   0.939   0.291  0.6622  0.4427  0.1165
13842SOL    HW142967   3.588   0.892   0.309  0.9137  0.1122 -1.6525
13842SOL    HW242968   3.508   0.953   0.196 -2.8608 -2.5639 -0.6467
13843SOL     OW42969   7.654   4.049  11.667  0.5793  0.5483 -0.2089
13843SOL    HW142970   7.659   3.960  11.702 -0.8840  0.6814  0.4280
13843SOL    HW242971   7.601   4.041  11.588  0.9847  0.7571 -0.5024
13844SOL     OW42972   2.211   3.064   0.398 -0.6213 -0.2498 -0.9241
13844SOL    HW142973   2.180   3.040   0.311  2.0112  0.8833 -2.2842
13844SOL    HW242974   2.276   2.996   0.419  0.6325  0.8958 -1.0172
13845SOL     OW42975   2.123   4.226  11.851  0.1784  0.3885 -0.5503
13845SOL    HW142976   2.101   4.317  11.874 -2.4971 -0.7372  2.0305
13845SOL    HW242977   2.118   4.224  11.756  1.0184  3.0774 -0.7364
13846SOL     OW42978   1.208   6.609   2.817  0.1324  0.5663 -0.5972
13846SOL    HW142979   1.226   6.607   2.911 -0.0032 -1.0516 -0.5739
13846SOL    HW242980   1.262   6.680   2.784  1.1988  0.3187  0.5132
13847SOL     OW42981   7.632   6.773   7.258  0.4496 -0.0321 -0.6582
13847SOL    HW142982   7.606   6.845   7.201 -0.3904 -0.3000 -0.6178
13847SOL    HW242983   7.666   6.816   7.336  1.3006  0.3298 -1.2113
13848SOL     OW42984   4.792   5.856   2.865 -0.7566  0.3749  0.1694
13848SOL    HW142985   4.842   5.937   2.859 -1.0843  0.5291 -0.6076
13848SOL    HW242986   4.857   5.787   2.853 -0.7374  0.5769 -0.9894
13849SOL     OW42987   6.977   5.380   6.235  0.4036 -0.5112  0.1740
13849SOL    HW142988   6.962   5.361   6.327  1.6462 -0.1928  0.4668
13849SOL    HW242989   7.066   5.416   6.232 -0.2726  1.2018 -0.9144
13850SOL     OW42990   5.459   2.382  10.248  0.1275 -0.0378  0.1406
13850SOL    HW142991   5.417   2.451  10.299 -1.0058 -0.1367 -0.6189
13850SOL    HW242992   5.425   2.394  10.159 -0.5132 -1.8655  0.0969
13851SOL     OW42993   7.770   0.417   2.668 -0.7885 -0.0472 -0.3204
13851SOL    HW142994   7.707   0.410   2.595  1.2837 -0.2719 -2.1956
13851SOL    HW242995   7.800   0.327   2.682 -1.3993 -0.0529  1.0763
13852SOL     OW42996   5.328   0.938   5.112 -0.2992 -0.6602 -0.2280
13852SOL    HW142997   5.235   0.937   5.135 -0.6253  4.4825 -0.1416
13852SOL    HW242998   5.373   0.958   5.194  0.6989 -1.1941 -0.6300
13853SOL     OW42999   6.030   2.461   3.654  0.3321  0.1083 -0.2261
13853SOL    HW143000   6.116   2.467   3.694  0.7288 -2.0308 -0.6046
13853SOL    HW243001   5.984   2.539   3.683  1.4544 -0.0739  2.3281
13854SOL     OW43002   6.882   6.108  12.010  0.1338  0.4460  0.0898
13854SOL    HW143003   6.813   6.145  12.064 -0.0638 -2.3637  2.0015
13854SOL    HW243004   6.843   6.028  11.973  2.3113 -1.3606  1.4309
13855SOL     OW43005   3.406   1.315  11.870  0.1837  0.0483 -0.4562
13855SOL    HW143006   3.493   1.332  11.836 -0.4014  1.5320 -1.3185
13855SOL    HW243007   3.396   1.220  11.866  1.2004 -0.0195 -1.7587
13856SOL     OW43008   1.925   2.780   1.082  0.4404 -0.5353 -0.4976
13856SOL    HW143009   1.990   2.723   1.040  1.1586 -0.1775  0.1116
13856SOL    HW243010   1.875   2.817   1.009  1.6640  0.0738 -1.0534
13857SOL     OW43011   6.693   4.450   4.544  0.0689  0.8647  0.2926
13857SOL    HW143012   6.714   4.455   4.451  0.8003 -0.1435  0.3895
13857SOL    HW243013   6.732   4.529   4.581  1.7887  0.1544  0.0925
13858SOL     OW43014   2.929   0.597   9.829 -0.5046  0.0422 -0.5819
13858SOL    HW143015   3.018   0.561   9.829 -0.1354  0.9119  0.1530
13858SOL    HW243016   2.936   0.680   9.782 -0.9857 -0.0202 -0.7671
13859SOL     OW43017   1.179   1.801   6.798  0.4436 -0.5693 -0.1738
13859SOL    HW143018   1.271   1.824   6.811  0.0004  1.7590 -0.7928
13859SOL    HW243019   1.138   1.818   6.883  0.6084 -1.9816  0.2187
13860SOL     OW43020   2.379   5.145   7.016 -0.2124 -0.0535  0.4224
13860SOL    HW143021   2.400   5.187   7.099 -2.0602 -0.3433  1.0857
13860SOL    HW243022   2.374   5.051   7.037  2.1287 -0.4750 -0.6571
13861SOL     OW43023   4.686   4.887   2.004  0.2363  0.4104 -0.4810
13861SOL    HW143024   4.773   4.927   2.011  0.0603  1.1270 -1.9367
13861SOL    HW243025   4.679   4.862   1.912 -0.5078 -1.0693 -0.0579
13862SOL     OW43026   1.340   5.936   6.137 -0.2391  0.0666 -0.8836
13862SOL    HW143027   1.347   5.852   6.091  0.8501 -1.1121  1.2683
13862SOL    HW243028   1.410   5.990   6.099  0.1048 -0.5780 -1.1867
13863SOL     OW43029   6.444   7.512   5.592 -0.0801 -0.4980 -0.4967
13863SOL    HW143030   6.356   7.495   5.623 -0.2919  1.5960  0.2202
13863SOL    HW243031   6.490   7.429   5.602 -1.5757 -1.2391  0.4970
13864SOL     OW43032   3.003   2.799   0.559 -0.3408  0.2217 -0.4826
13864SOL    HW143033   2.999   2.719   0.612 -0.7154  0.6335  0.1381
13864SOL    HW243034   3.009   2.769   0.469 -1.3646 -0.5137 -0.3191
13865SOL     OW43035   5.282   7.557   9.128  0.0562  0.0467 -0.4429
13865SOL    HW143036   5.242   7.501   9.196 -0.2436 -0.4027 -0.9753
13865SOL    HW243037   5.208   7.606   9.092  0.1232 -0.1121 -0.8034
13866SOL     OW43038   7.211   1.727  10.355  0.5916  0.4890  0.3004
13866SOL    HW143039   7.262   1.680  10.288 -0.4999 -1.5579  0.8361
13866SOL    HW243040   7.228   1.679  10.436  0.2979  1.7175  1.1166
13867SOL     OW43041   6.103   0.018   4.830  0.1606  0.6423 -0.4072
13867SOL    HW143042   6.155  -0.046   4.781 -0.0263  0.1711  0.0110
13867SOL    HW243043   6.124   0.102   4.788 -0.9574  0.1091 -2.1445
13868SOL     OW43044   2.330   6.182   6.596 -0.6269  0.0369  0.1316
13868SOL    HW143045   2.380   6.257   6.629  0.1990  0.3028 -1.5966
13868SOL    HW243046   2.351   6.178   6.503 -2.2571 -1.1251 -0.2366
13869SOL     OW43047   4.003   1.948   2.161  0.0766  0.5943 -0.8165
13869SOL    HW143048   3.984   2.009   2.231 -2.0475 -0.4894 -0.3663
13869SOL    HW243049   3.967   1.989   2.082 -1.7984 -0.2176 -0.4328
13870SOL     OW43050   3.988   6.080   4.280 -0.1331  0.2135  0.2592
13870SOL    HW143051   3.927   6.011   4.254  0.1083  0.1081 -0.0443
13870SOL    HW243052   3.999   6.069   4.374 -0.7119  0.3424  0.3481
13871SOL     OW43053   2.380   3.212   0.889 -0.2456  0.0978  0.6569
13871SOL    HW143054   2.309   3.275   0.899 -1.4313 -1.2279  0.9797
13871SOL    HW243055   2.346   3.149   0.825  1.2256  0.1916 -0.2781
13872SOL     OW43056   5.636   5.907   5.260  0.3426 -0.2198  0.1020
13872SOL    HW143057   5.592   5.947   5.186 -0.1617  0.6725  0.8547
13872SOL    HW243058   5.716   5.958   5.271 -0.1454  0.4115  0.8664
13873SOL     OW43059   5.462   5.325   3.900  0.5566  0.3872  0.4370
13873SOL    HW143060   5.526   5.378   3.950  1.4702 -1.2150  1.0441
13873SOL    HW243061   5.482   5.235   3.925 -0.2752 -0.3306 -1.3604
13874SOL     OW43062   6.396   3.694   8.553 -0.0723  0.7340  0.5061
13874SOL    HW143063   6.303   3.697   8.531 -0.1866  1.4504  1.0853
13874SOL    HW243064   6.426   3.784   8.543  0.5541  0.5181  0.3855
13875SOL     OW43065   4.407   2.870  11.328 -0.1557 -0.1125  0.0766
13875SOL    HW143066   4.354   2.856  11.406 -1.3931  1.6985 -0.3659
13875SOL    HW243067   4.343   2.871  11.256  0.7932 -0.3896 -0.7971
13876SOL     OW43068   2.283   3.860  11.332  0.1246 -0.1850  0.3265
13876SOL    HW143069   2.322   3.884  11.247  2.2693 -1.8683  0.7474
13876SOL    HW243070   2.348   3.890  11.396  0.4157 -2.3201  1.1141
13877SOL     OW43071   5.916   3.869   5.954  0.2137  0.0306 -0.3315
13877SOL    HW143072   6.003   3.836   5.977  0.9179  1.4816 -0.8364
13877SOL    HW243073   5.887   3.917   6.031  0.1089  0.0626 -0.3904
13878SOL     OW43074   5.160   1.037   8.088  0.0928 -0.1424 -0.3993
13878SOL    HW143075   5.097   0.980   8.132 -0.2821  0.2405 -0.4297
13878SOL    HW243076   5.239   0.984   8.080  0.7983  0.3296  2.3221
13879SOL     OW43077   0.619   6.768  10.855  0.0311  0.3765  0.7768
13879SOL    HW143078   0.628   6.691  10.799  0.2238  1.2695 -0.4818
13879SOL    HW243079   0.699   6.819  10.837 -0.1888  0.9588  1.4304
13880SOL     OW43080   4.588   4.791   1.059  0.0151 -0.3747 -0.0225
13880SOL    HW143081   4.633   4.813   0.977  0.8619 -0.7716  0.3210
13880SOL    HW243082   4.657   4.753   1.114 -0.0719  1.6170  1.5832
13881SOL     OW43083   1.776   5.028   5.944 -0.1163 -0.2047  0.1618
13881SOL    HW143084   1.696   5.080   5.943  0.0977  0.1273 -0.4157
13881SOL    HW243085   1.751   4.945   5.904 -0.7757 -1.0643  2.2526
13882SOL     OW43086   0.368   7.796   7.741  0.5740 -0.3376 -0.4783
13882SOL    HW143087   0.438   7.732   7.729  1.1717  0.3497 -0.7438
13882SOL    HW243088   0.406   7.863   7.798 -0.3660 -0.7003  0.6052
13883SOL     OW43089   6.362   6.367   1.491 -0.3843  0.1930  0.1657
13883SOL    HW143090   6.425   6.383   1.562 -0.1426 -0.2046  0.0470
13883SOL    HW243091   6.358   6.450   1.444 -0.3365  0.3772  0.4807
13884SOL     OW43092   6.837   5.603   3.211 -0.3093  0.4629  0.1319
13884SOL    HW143093   6.742   5.596   3.223 -0.3569 -0.3723 -0.6450
13884SOL    HW243094   6.855   5.697   3.222 -1.2626  0.6681  0.0395
13885SOL     OW43095   2.072   2.997   3.529  0.1975  0.2217  0.0430
13885SOL    HW143096   2.076   2.913   3.574  0.4695 -0.4487 -1.2134
13885SOL    HW243097   2.027   2.979   3.447  0.2143  1.3165 -0.2223
13886SOL     OW43098   4.988   4.569   6.124 -0.0172 -0.7733 -0.2420
13886SOL    HW143099   4.935   4.598   6.198  0.7067 -0.7368  0.2685
13886SOL    HW243100   5.063   4.526   6.163  0.2373 -1.0043 -0.9632
13887SOL     OW43101   4.702   0.325  12.123 -0.3846  0.0773 -0.3848
13887SOL    HW143102   4.612   0.356  12.137 -0.4270  0.2776 -1.0506
13887SOL    HW243103   4.696   0.230  12.135 -0.5184  0.1766  0.3703
13888SOL     OW43104   4.804   1.008   3.368  0.6146 -0.1983  0.1526
13888SOL    HW143105   4.768   0.991   3.455 -1.9936 -1.9368 -1.1413
13888SOL    HW243106   4.824   0.921   3.332  0.8558  0.4140 -1.2855
13889SOL     OW43107   1.390   3.432  10.630  0.1766  0.1573 -0.1798
13889SOL    HW143108   1.466   3.429  10.572  0.5493  4.0353 -0.1083
13889SOL    HW243109   1.320   3.469  10.576 -0.4058  0.7299  0.9471
13890SOL     OW43110   3.174   1.911   6.884 -0.5615 -0.0294 -0.1921
13890SOL    HW143111   3.081   1.930   6.868 -0.6182 -0.3188 -0.2141
13890SOL    HW243112   3.219   1.992   6.860 -0.6056 -0.5590 -2.2091
13891SOL     OW43113   7.353   5.482   0.967 -0.8831 -0.5275  0.5850
13891SOL    HW143114   7.415   5.488   0.894 -1.4565  1.3111  0.1985
13891SOL    HW243115   7.394   5.534   1.037 -0.6882 -1.6512  1.3303
13892SOL     OW43116   5.066   3.391   1.528  0.2310 -0.7219  0.2111
13892SOL    HW143117   5.013   3.433   1.596  0.4050  1.0965 -0.7130
13892SOL    HW243118   5.028   3.304   1.518 -0.4961 -0.6349  1.8418
13893SOL     OW43119   4.007   1.868  12.016 -0.4117  0.3108 -0.0082
13893SOL    HW143120   4.070   1.805  12.051  0.4622  0.5099 -1.1476
13893SOL    HW243121   4.060   1.943  11.989 -1.1275  0.4966 -0.9801
13894SOL     OW43122   2.384   3.705   6.881 -0.2737 -0.0895 -0.2903
13894SOL    HW143123   2.304   3.654   6.895 -0.9760  0.6794 -1.4146
13894SOL    HW243124   2.443   3.645   6.835 -0.2605 -0.5871  0.3546
13895SOL     OW43125   0.337   5.728  12.254  0.2585  0.1251 -0.1511
13895SOL    HW143126   0.407   5.677  12.214  0.4310 -0.8214  1.3230
13895SOL    HW243127   0.296   5.773  12.180  1.5995 -0.2877 -1.1896
13896SOL     OW43128   6.565   2.862   6.031 -0.2244 -0.3373 -0.1281
13896SOL    HW143129   6.478   2.893   6.058  0.0791  0.0941  0.3770
13896SOL    HW243130   6.611   2.942   6.004 -0.4737 -0.7396 -1.8243
13897SOL     OW43131   2.248   3.290  10.024  0.7265 -0.2529  0.3209
13897SOL    HW143132   2.267   3.225   9.957 -0.4118 -0.3727  0.0947
13897SOL    HW243133   2.182   3.249  10.079 -0.5726  0.9744 -0.2716
13898SOL     OW43134   2.529   5.085  11.245  0.2784 -0.3417 -0.2325
13898SOL    HW143135   2.543   5.179  11.244  0.8899 -0.4030  0.7421
13898SOL    HW243136   2.475   5.070  11.323  0.1013 -0.7853 -0.4363
13899SOL     OW43137   0.630   5.381   4.188 -0.6347 -1.2305  0.1622
13899SOL    HW143138   0.674   5.385   4.103 -0.9291 -0.4101  0.0432
13899SOL    HW243139   0.674   5.446   4.242 -3.1394  1.3706 -0.6791
13900SOL     OW43140   0.236   3.160   8.318  0.1345  0.8308  0.4020
13900SOL    HW143141   0.308   3.113   8.275  0.9421 -0.6068  3.0997
13900SOL    HW243142   0.168   3.166   8.251  1.7235 -0.1592 -1.4191
13901SOL     OW43143   2.035   1.116   0.205  0.6363  0.6445  0.6494
13901SOL    HW143144   2.092   1.067   0.264  1.6770  1.0072 -0.0159
13901SOL    HW243145   1.953   1.126   0.252  0.6285 -1.1461  1.0615
13902SOL     OW43146   0.745   4.172   3.347 -0.4331  0.4097 -0.2588
13902SOL    HW143147   0.743   4.267   3.359  1.4626  0.3547  1.1232
13902SOL    HW243148   0.733   4.137   3.436  1.9266 -0.5010 -0.2272
13903SOL     OW43149   4.580   4.842   6.252 -0.3270  0.3926 -0.4391
13903SOL    HW143150   4.636   4.774   6.289 -1.1977 -0.0774  0.0393
13903SOL    HW243151   4.641   4.904   6.212  0.4542 -1.0035 -1.4837
13904SOL     OW43152   1.209   1.813   2.003  0.3549  0.4525  0.4808
13904SOL    HW143153   1.196   1.894   1.953  0.2248  0.1137 -0.0517
13904SOL    HW243154   1.124   1.798   2.046 -1.8535 -2.4968 -4.0904
13905SOL     OW43155   1.445   2.932   5.853 -0.7463  0.0896  0.2686
13905SOL    HW143156   1.421   3.017   5.816  0.0876  1.0721  1.8616
13905SOL    HW243157   1.540   2.927   5.840 -0.7332 -0.4129  0.5399
13906SOL     OW43158   6.091   3.080   3.891  0.6059 -0.6450  0.5363
13906SOL    HW143159   6.147   3.053   3.964  0.9040 -0.8389  0.2395
13906SOL    HW243160   6.107   3.015   3.823 -1.7852 -2.1276  1.2702
13907SOL     OW43161   5.383   4.064   9.867 -0.1865 -0.4088 -0.3083
13907SOL    HW143162   5.457   4.087   9.810  0.6961 -1.3421  0.4140
13907SOL    HW243163   5.306   4.068   9.811  0.5481 -0.4370 -1.3398
13908SOL     OW43164   1.528   1.057   3.854  0.2080 -0.2101  0.2113
13908SOL    HW143165   1.615   1.024   3.836  0.5535  0.0669  1.2970
13908SOL    HW243166   1.538   1.111   3.933 -0.9519 -0.2431  0.4061
13909SOL     OW43167   1.983   4.576   3.246  0.5075 -0.1271 -0.0386
13909SOL    HW143168   1.931   4.562   3.325 -0.2137 -1.2337 -0.6896
13909SOL    HW243169   2.027   4.492   3.230  0.2827 -0.0630 -1.0638
13910SOL     OW43170   6.548   7.441   3.423  1.1136 -0.4534 -0.1382
13910SOL    HW143171   6.508   7.521   3.458  0.7303 -0.6384 -0.1452
13910SOL    HW243172   6.632   7.470   3.388 -0.5683  0.7890 -3.7617
13911SOL     OW43173   0.697   4.617   2.105  0.7539 -0.1446 -0.0693
13911SOL    HW143174   0.641   4.694   2.106 -2.7170 -2.4600  0.5173
13911SOL    HW243175   0.706   4.593   2.013  1.0620  0.3980 -0.1831
13912SOL     OW43176   4.302   0.574   8.757 -0.1922  0.6150  0.0403
13912SOL    HW143177   4.388   0.545   8.785 -0.5715 -1.6318 -0.9509
13912SOL    HW243178   4.245   0.559   8.833  0.0669  1.1128  0.3393
13913SOL     OW43179   7.185   2.357   9.613  0.0593  0.1188  0.0329
13913SOL    HW143180   7.151   2.408   9.539  1.8969 -0.5729 -1.3799
13913SOL    HW243181   7.117   2.293   9.632 -0.3870  0.1995 -1.2143
13914SOL     OW43182   6.013   4.177   9.493  0.6510 -0.4327  0.0158
13914SOL    HW143183   6.027   4.253   9.437 -1.7598 -0.5977 -0.9715
13914SOL    HW243184   5.968   4.211   9.570  2.5688 -0.4368  1.2009
13915SOL     OW43185   6.591   5.111   6.683 -0.2202 -0.3297 -0.2145
13915SOL    HW143186   6.624   5.074   6.601  1.0925  0.1589  0.0735
13915SOL    HW243187   6.631   5.058   6.752  0.4909  0.6647  0.1624
13916SOL     OW43188   6.524   7.157   0.313 -0.0572  0.1289 -0.2479
13916SOL    HW143189   6.523   7.106   0.232 -0.1954  0.1599 -0.2654
13916SOL    HW243190   6.617   7.176   0.328  0.3201 -2.3716  1.1684
13917SOL     OW43191   7.369   5.172  11.378  0.1913 -0.1383  0.1234
13917SOL    HW143192   7.461   5.198  11.381  1.2416 -3.4223  0.1832
13917SOL    HW243193   7.322   5.252  11.352  2.6425  2.3806  2.8151
13918SOL     OW43194   6.823   2.765  10.509  0.3450 -0.2287 -0.2964
13918SOL    HW143195   6.883   2.709  10.459  0.4785  0.5098 -0.9723
13918SOL    HW243196   6.783   2.705  10.573  1.6233 -0.7835  0.0202
13919SOL     OW43197   6.513   7.157   5.229  0.1854  0.0466 -0.2942
13919SOL    HW143198   6.606   7.166   5.247  0.2760  2.2749 -1.5267
13919SOL    HW243199   6.470   7.183   5.311  0.6563  2.2272 -0.6833
13920SOL     OW43200   0.717   4.932   4.530 -0.6170 -0.5482  0.3910
13920SOL    HW143201   0.677   5.012   4.496  0.1035 -0.3915 -0.1067
13920SOL    HW243202   0.643   4.873   4.544 -1.0052 -0.3895 -0.8608
13921SOL     OW43203   2.428   6.842   8.150 -0.6238  0.0833  0.3651
13921SOL    HW143204   2.481   6.921   8.163 -0.2716 -0.1573  0.4130
13921SOL    HW243205   2.400   6.846   8.058  0.7097 -0.5274 -0.0932
13922SOL     OW43206   6.935   5.860   0.964 -0.2884  0.5251  0.3055
13922SOL    HW143207   6.965   5.910   0.888 -0.8444  1.1313  0.4728
13922SOL    HW243208   6.858   5.908   0.996  0.0728  0.4053  1.3941
13923SOL     OW43209   3.248   1.730  10.793  0.2574  0.3244 -0.3398
13923SOL    HW143210   3.248   1.669  10.718 -0.7757 -0.9241  0.6320
13923SOL    HW243211   3.250   1.817  10.753  0.8235 -0.3268 -1.7968
13924SOL     OW43212   7.687   6.561   7.849  0.1464  0.0539  0.2126
13924SOL    HW143213   7.769   6.512   7.856 -0.6254 -1.2673  0.4708
13924SOL    HW243214   7.687   6.620   7.924  0.2507 -0.9262  1.0105
13925SOL     OW43215   1.635   1.473  10.619  0.4800 -0.2149  0.0304
13925SOL    HW143216   1.619   1.567  10.612  1.4109 -0.0962 -0.7246
13925SOL    HW243217   1.589   1.447  10.698 -1.2620  0.5417 -0.6760
13926SOL     OW43218   2.075   1.078   5.016  0.0137  0.0863 -0.1862
13926SOL    HW143219   2.091   1.027   5.095 -2.7423 -0.6379  0.0305
13926SOL    HW243220   2.124   1.159   5.029 -0.5851  0.1127  2.4498
13927SOL     OW43221   7.294   4.502  11.829  0.6656 -0.0680 -0.3263
13927SOL    HW143222   7.367   4.508  11.767 -0.0279 -0.4855 -1.2010
13927SOL    HW243223   7.229   4.449  11.784 -0.2114  0.3585  0.4161
13928SOL     OW43224   2.715   2.784   0.568 -0.3578  0.2409 -0.2940
13928SOL    HW143225   2.749   2.863   0.611  1.6679 -0.5965 -0.2463
13928SOL    HW243226   2.757   2.785   0.482 -0.4379 -0.6943 -0.3482
13929SOL     OW43227   0.151   7.346   3.823 -0.5166 -0.2052  0.1815
13929SOL    HW143228   0.216   7.329   3.892 -1.2575 -0.0372  0.9303
13929SOL    HW243229   0.198   7.326   3.742  0.9123  1.2011  0.6138
13930SOL     OW43230   7.146   3.719   5.227 -0.0821 -0.0036  0.2422
13930SOL    HW143231   7.094   3.642   5.201 -0.6909  0.4511  0.0880
13930SOL    HW243232   7.116   3.789   5.169  1.2828  0.0820 -0.3846
13931SOL     OW43233   5.007   1.847  11.486  0.1114 -0.2459  0.4012
13931SOL    HW143234   5.006   1.877  11.577 -1.8908 -0.5577  0.5351
13931SOL    HW243235   4.973   1.921  11.436 -2.0017 -1.1719  0.3636
13932SOL     OW43236   5.125   2.881  11.164  0.2005  0.0482 -0.5533
13932SOL    HW143237   5.136   2.905  11.072 -0.5524  1.6385 -0.2677
13932SOL    HW243238   5.201   2.921  11.208 -0.4202  0.9029 -0.2380
13933SOL     OW43239   2.211   7.040   6.438 -0.1452 -0.3252 -0.1376
13933SOL    HW143240   2.268   6.974   6.477  0.0116 -0.3982 -0.4950
13933SOL    HW243241   2.136   6.991   6.403 -0.1158 -0.2953 -0.2424
13934SOL     OW43242   4.267   0.282   6.744 -0.0773  0.2086  0.2620
13934SOL    HW143243   4.247   0.312   6.832  0.0661 -1.3024  0.8346
13934SOL    HW243244   4.194   0.312   6.691  1.0363  3.3854  0.3140
13935SOL     OW43245   6.862   2.345  12.301  0.0433 -0.2892 -0.5587
13935SOL    HW143246   6.906   2.302  12.228  0.3771  0.5876 -0.8915
13935SOL    HW243247   6.863   2.438  12.278 -1.2640 -0.1583 -0.1883
13936SOL     OW43248   0.309   4.664   6.292 -0.2848 -0.2458  0.1048
13936SOL    HW143249   0.381   4.709   6.248  0.1343 -0.1081  0.9168
13936SOL    HW243250   0.254   4.631   6.221  1.0957 -1.2080 -0.5619
13937SOL     OW43251   6.793   5.922   8.367 -0.4841 -0.4163  0.1750
13937SOL    HW143252   6.765   5.941   8.278 -2.0909  0.7619  0.8957
13937SOL    HW243253   6.725   5.864   8.402 -1.2579  1.1800  1.4256
13938SOL     OW43254   4.375   2.507   2.461  0.0017 -0.5523  0.1572
13938SOL    HW143255   4.419   2.460   2.390 -1.1354  1.3858 -1.9365
13938SOL    HW243256   4.429   2.585   2.475 -1.3653  0.5929 -0.7251
13939SOL     OW43257   5.262   4.705  10.548  0.3980 -0.1070  0.2525
13939SOL    HW143258   5.317   4.772  10.589  0.4348 -0.0697  0.1428
13939SOL    HW243259   5.239   4.742  10.462  1.9549 -1.0063 -0.6128
13940SOL     OW43260   5.685   4.437  10.152 -0.5980  0.1234  0.6900
13940SOL    HW143261   5.650   4.497  10.218 -1.8146 -0.9241  1.0409
13940SOL    HW243262   5.652   4.351  10.178  0.9967 -0.7030  0.1263
13941SOL     OW43263   5.745   6.506   0.972  0.2902  0.0091 -0.3979
13941SOL    HW143264   5.810   6.532   0.908  0.9721 -0.5231  0.0687
13941SOL    HW243265   5.757   6.567   1.045  0.8622 -0.6320  0.0540
13942SOL     OW43266   6.415   6.660   0.046  0.6608 -0.4264 -0.2217
13942SOL    HW143267   6.473   6.698   0.112  1.4341  1.2751 -1.7780
13942SOL    HW243268   6.328   6.691   0.069  1.0498  0.9289 -0.4651
13943SOL     OW43269   0.342   7.617  10.376 -0.3799  0.1254 -0.7790
13943SOL    HW143270   0.417   7.627  10.317 -0.1060  1.5879 -0.2435
13943SOL    HW243271   0.366   7.546  10.435  0.4590  0.3876 -0.8026
13944SOL     OW43272   3.627   0.398   7.986 -0.1068  0.2891  0.0349
13944SOL    HW143273   3.588   0.359   8.065  0.7678 -3.5876 -1.2308
13944SOL    HW243274   3.552   0.414   7.928 -0.4103 -1.7308 -0.2146
13945SOL     OW43275   6.799   7.172  11.411  0.4026 -0.2328  0.7216
13945SOL    HW143276   6.792   7.183  11.316 -0.3401  0.4062  0.8347
13945SOL    HW243277   6.884   7.211  11.434  0.7287 -0.6834  0.2790
13946SOL     OW43278   1.000   7.179  11.556 -0.5186 -0.0889  0.2735
13946SOL    HW143279   1.086   7.139  11.569 -0.1826 -0.0516 -1.6304
13946SOL    HW243280   1.014   7.272  11.576 -0.1326 -0.0912  0.0251
13947SOL     OW43281   5.765   6.530  11.020 -0.1652 -0.5610  0.2849
13947SOL    HW143282   5.828   6.480  10.968 -0.6516 -0.5852 -0.2957
13947SOL    HW243283   5.697   6.467  11.042  0.2485 -0.6529  1.3203
13948SOL     OW43284   1.025   3.672   8.421 -0.2280  0.0798  0.8314
13948SOL    HW143285   1.119   3.665   8.403 -0.4480  2.5311 -2.1090
13948SOL    HW243286   0.983   3.635   8.343 -1.7109 -0.2804  1.7712
13949SOL     OW43287   5.092   0.774   4.531 -0.5704  1.0183 -0.1037
13949SOL    HW143288   5.130   0.738   4.451 -4.2783 -0.3212 -1.4698
13949SOL    HW243289   5.162   0.766   4.596  1.1445 -2.2284 -2.0601
13950SOL     OW43290   4.965   5.882   1.948  0.6707 -0.0051  0.2098
13950SOL    HW143291   4.905   5.918   1.883  0.4572 -0.1054  0.3510
13950SOL    HW243292   5.046   5.932   1.935  0.5747  0.0960 -0.0136
13951SOL     OW43293   7.747   1.798   7.504  0.2396  0.0830  0.0071
13951SOL    HW143294   7.833   1.826   7.472  0.6764 -0.1317  0.9667
13951SOL    HW243295   7.713   1.741   7.435  1.4809 -0.9662  0.2345
13952SOL     OW43296   6.538   1.217   8.810 -0.3378  0.2443 -0.0411
13952SOL    HW143297   6.474   1.148   8.824  3.3239 -3.3734  0.6284
13952SOL    HW243298   6.574   1.235   8.896  0.3295  1.3713 -0.5272
13953SOL     OW43299   1.981   2.252  10.097  0.0016  0.0982 -0.0692
13953SOL    HW143300   2.027   2.173  10.068  0.1000  0.4750 -0.9885
13953SOL    HW243301   2.050   2.305  10.138 -0.0425 -0.2348  0.4477
13954SOL     OW43302   0.434   4.069   3.394 -0.0658 -0.0185 -0.2431
13954SOL    HW143303   0.464   3.987   3.433 -0.4766 -0.4460 -0.8053
13954SOL    HW243304   0.474   4.138   3.448 -1.6383 -0.5692  1.7337
13955SOL     OW43305   6.454   4.025   7.594  0.0511  0.0849 -0.3177
13955SOL    HW143306   6.489   4.044   7.681 -0.9250  0.5398 -0.0024
13955SOL    HW243307   6.444   4.111   7.554  1.5542 -0.1824 -1.3346
13956SOL     OW43308   1.609   4.882   8.127  0.1770  0.3693  0.1085
13956SOL    HW143309   1.569   4.861   8.212 -0.0199  0.9942  0.1696
13956SOL    HW243310   1.697   4.911   8.149 -0.4879  2.4213  0.2924
13957SOL     OW43311   5.377   7.226   2.314 -0.1740  0.4192 -0.1288
13957SOL    HW143312   5.332   7.280   2.378 -0.9022  0.6191 -0.7928
13957SOL    HW243313   5.308   7.171   2.276  0.7970 -2.3781  1.8503
13958SOL     OW43314   2.717   2.810   0.262  0.4315  0.1324 -0.6223
13958SOL    HW143315   2.641   2.755   0.244  0.8716 -0.4399 -0.7718
13958SOL    HW243316   2.792   2.756   0.235  0.8699  0.8029 -0.7682
13959SOL     OW43317   5.008   5.503   2.683  0.3791 -0.1120 -0.0565
13959SOL    HW143318   5.071   5.432   2.688  1.4474  0.7740 -0.5862
13959SOL    HW243319   5.054   5.579   2.718 -1.6949 -0.2376  3.4495
13960SOL     OW43320   5.511   5.708   1.595 -0.2335  0.2971 -0.1929
13960SOL    HW143321   5.525   5.624   1.552 -1.2641 -0.0340  0.1067
13960SOL    HW243322   5.548   5.772   1.535  1.3564 -0.4255 -0.0280
13961SOL     OW43323   1.151   1.007   7.016 -0.0418 -0.8030 -0.3944
13961SOL    HW143324   1.144   1.020   7.111 -1.1785 -0.1627 -0.5483
13961SOL    HW243325   1.120   0.917   7.003  1.8274 -1.5445  0.0077
13962SOL     OW43326   1.123   4.162   4.439 -0.1105 -0.0158  0.1088
13962SOL    HW143327   1.028   4.165   4.443 -0.3189  0.6573 -2.7513
13962SOL    HW243328   1.150   4.254   4.449 -0.0644  0.2613 -1.9520
13963SOL     OW43329   4.431   5.682   0.844 -0.5777 -0.0289  0.5413
13963SOL    HW143330   4.367   5.617   0.873  0.7060 -1.0530  1.1932
13963SOL    HW243331   4.411   5.760   0.897  0.1882 -1.1045  2.5464
13964SOL     OW43332   3.126   4.958  10.430  0.3816  0.3439  0.4625
13964SOL    HW143333   3.212   4.997  10.414  0.1884  0.8285  0.5680
13964SOL    HW243334   3.132   4.869  10.396  0.9488  0.3531  0.5355
13965SOL     OW43335   2.853   1.284   3.134 -0.0088 -0.0366  0.1760
13965SOL    HW143336   2.838   1.238   3.217 -2.2245 -0.6633 -0.5033
13965SOL    HW243337   2.874   1.215   3.071 -0.5184  0.1774 -0.2396
13966SOL     OW43338   3.611   4.381   9.191  0.8827 -0.4284  0.5653
13966SOL    HW143339   3.518   4.376   9.212  0.7236 -1.2485 -0.2909
13966SOL    HW243340   3.634   4.472   9.210 -0.1744 -0.1200  0.4516
13967SOL     OW43341   3.325   1.772   1.065  0.1273 -0.8114  0.8554
13967SOL    HW143342   3.305   1.817   1.147  1.2658  1.8026 -0.1969
13967SOL    HW243343   3.242   1.772   1.017  0.1330  0.3801  0.8157
13968SOL     OW43344   2.543   1.009   8.647  0.2540  0.1524  0.1615
13968SOL    HW143345   2.535   0.934   8.707 -0.8167 -1.4360 -1.8179
13968SOL    HW243346   2.636   1.016   8.629  0.3656 -0.8036  0.3137
13969SOL     OW43347   3.858   6.648   5.727  0.5568  0.4164  0.4007
13969SOL    HW143348   3.914   6.596   5.784 -0.6906 -1.8505 -0.3442
13969SOL    HW243349   3.885   6.739   5.744  4.1746 -0.4830  0.3089
13970SOL     OW43350   3.402   5.425   1.349 -0.2158  0.5396 -0.1073
13970SOL    HW143351   3.485   5.463   1.377 -0.3892  1.7554 -1.1824
13970SOL    HW243352   3.412   5.331   1.366  1.2270  0.7208  0.1397
13971SOL     OW43353   4.607   6.157   0.693 -0.0138 -0.0298 -0.0065
13971SOL    HW143354   4.564   6.136   0.610 -1.2319 -0.1552  0.6306
13971SOL    HW243355   4.584   6.248   0.709  0.3558  0.0419  0.1283
13972SOL     OW43356   6.937   3.774   8.389  0.2986 -0.6159 -0.3744
13972SOL    HW143357   6.850   3.790   8.352  0.8601 -0.3555 -1.6301
13972SOL    HW243358   6.955   3.682   8.369 -0.4103 -1.2094  1.4924
13973SOL     OW43359   4.586   6.819   4.664 -0.1839 -0.1570  0.1031
13973SOL    HW143360   4.559   6.819   4.756 -2.3481  1.6535 -0.4473
13973SOL    HW243361   4.504   6.819   4.615  0.9223 -1.4070 -1.8694
13974SOL     OW43362   6.081   7.902  10.644  0.0255 -0.0035  0.2549
13974SOL    HW143363   6.151   7.891  10.580  1.2885  0.7682  1.4492
13974SOL    HW243364   6.073   7.997  10.653 -1.6992 -0.0585 -0.3875
13975SOL     OW43365   0.128   6.673   0.994  0.1394  0.5680 -0.5073
13975SOL    HW143366   0.188   6.745   1.012  2.8470 -1.6546  0.1679
13975SOL    HW243367   0.051   6.692   1.048  1.6723  1.8875  1.3651
13976SOL     OW43368   0.830   0.844   5.535 -0.1464  0.1917 -0.3296
13976SOL    HW143369   0.860   0.908   5.600 -2.0098  0.6543  0.1260
13976SOL    HW243370   0.906   0.830   5.478  1.0194  1.0202  0.9640
13977SOL     OW43371   3.975   1.759   0.740 -0.7612  0.4508  0.2183
13977SOL    HW143372   4.037   1.831   0.727  2.5759 -2.0582  0.9371
13977SOL    HW243373   3.939   1.741   0.653  0.6597  1.0707 -0.5162
13978SOL     OW43374   7.823   5.830   4.427 -0.4519  0.0834 -0.9256
13978SOL    HW143375   7.888   5.780   4.476 -0.4951 -1.2735 -2.1787
13978SOL    HW243376   7.833   5.919   4.459  0.7357 -0.4268  0.2487
13979SOL     OW43377   7.432   0.018   2.457 -0.0120 -0.4740  0.2215
13979SOL    HW143378   7.442  -0.059   2.513  2.1322 -1.4059 -1.2686
13979SOL    HW243379   7.385  -0.015   2.380  2.2046 -0.7860 -1.0988
13980SOL     OW43380   2.857   3.667   9.410 -0.0752 -0.2869 -0.4316
13980SOL    HW143381   2.817   3.630   9.332 -3.0569  0.3029  0.6552
13980SOL    HW243382   2.875   3.592   9.466  1.4742 -0.6536 -1.3652
13981SOL     OW43383   2.554   7.195   6.109  0.2841 -0.2743 -0.3471
13981SOL    HW143384   2.594   7.147   6.036 -0.5394 -0.7061 -0.5294
13981SOL    HW243385   2.624   7.251   6.142  0.5933  0.1641 -1.6705
13982SOL     OW43386   6.737   4.181   1.538  0.3760  0.0975 -0.2878
13982SOL    HW143387   6.701   4.105   1.493 -0.7087  0.1588  0.4284
13982SOL    HW243388   6.778   4.145   1.617 -0.2188  0.2439  0.0982
13983SOL     OW43389   3.130   3.592   0.270  0.7241  0.0935  0.3188
13983SOL    HW143390   3.187   3.532   0.222  0.8259  0.3735  0.0870
13983SOL    HW243391   3.043   3.554   0.262  1.1539 -1.5405  2.5421
13984SOL     OW43392   6.383   7.699  12.239  0.4079 -0.1396 -0.2126
13984SOL    HW143393   6.324   7.657  12.302  0.0132  0.8854  0.1110
13984SOL    HW243394   6.424   7.625  12.193  0.7968 -0.9090  1.2942
13985SOL     OW43395   5.875   4.731   2.332  0.2611 -0.1817 -0.3462
13985SOL    HW143396   5.916   4.652   2.297 -0.6684  0.1927 -2.4209
13985SOL    HW243397   5.914   4.742   2.419  3.5659 -0.5398 -1.6565
13986SOL     OW43398   6.852   3.483  10.868  0.2489 -0.3991 -0.8498
13986SOL    HW143399   6.818   3.396  10.888 -0.2118 -0.0664 -0.1579
13986SOL    HW243400   6.775   3.537  10.853  0.5429 -0.1983 -1.7114
13987SOL     OW43401   0.306   2.336   7.803  0.1270 -0.3264  0.2774
13987SOL    HW143402   0.355   2.287   7.870 -0.0503  1.1415  1.5367
13987SOL    HW243403   0.224   2.288   7.794 -0.3803  0.1204  2.0661
13988SOL     OW43404   7.894   3.041   0.810 -0.0308  0.1658  0.4742
13988SOL    HW143405   7.898   2.956   0.767 -2.2012 -0.3845  1.2258
13988SOL    HW243406   7.948   3.098   0.755  0.6978 -1.4498 -0.5808
13989SOL     OW43407   6.214   4.025   3.249 -0.5552 -0.1322  0.3209
13989SOL    HW143408   6.285   3.978   3.205  0.4193  1.8148 -0.2895
13989SOL    HW243409   6.250   4.048   3.335 -0.5799  0.4999  0.1681
13990SOL     OW43410   5.398   7.505   8.708 -0.0771  0.0877 -0.1481
13990SOL    HW143411   5.325   7.566   8.721 -0.6099 -0.8075  1.3854
13990SOL    HW243412   5.387   7.441   8.778  2.4305  0.1608  0.3983
13991SOL     OW43413   3.593   7.847   4.928 -0.8034 -0.6158 -0.7301
13991SOL    HW143414   3.578   7.916   4.863 -2.6892 -0.8440 -0.5957
13991SOL    HW243415   3.659   7.883   4.987 -0.3084  0.2699 -1.7911
13992SOL     OW43416   1.904   4.196   8.789 -0.6006  0.2647  0.2959
13992SOL    HW143417   1.816   4.158   8.791  0.2425 -1.8296  1.4213
13992SOL    HW243418   1.902   4.265   8.855 -1.3625  0.1100  0.4428
13993SOL     OW43419   5.996   4.254   9.189 -0.1571  0.4077  0.2680
13993SOL    HW143420   5.927   4.294   9.137  0.1538  0.4594 -0.1139
13993SOL    HW243421   6.026   4.324   9.246 -0.3914  0.3965  0.4059
13994SOL     OW43422   6.783   6.125   9.471  0.6165  0.2397 -0.3220
13994SOL    HW143423   6.700   6.079   9.463  0.9413 -0.4488  0.1864
13994SOL    HW243424   6.760   6.217   9.462 -0.1804  0.0506 -0.3207
13995SOL     OW43425   0.539   1.857  10.479  0.0524  0.7045 -0.3916
13995SOL    HW143426   0.446   1.879  10.492  0.0439  0.4125  0.0729
13995SOL    HW243427   0.580   1.941  10.456  0.0749  1.3176  1.6610
13996SOL     OW43428   1.759   5.519   2.285 -0.0466 -0.3948  0.4968
13996SOL    HW143429   1.844   5.499   2.323  0.6737 -2.0775 -1.7670
13996SOL    HW243430   1.697   5.469   2.339  0.6524 -0.8841  0.8720
13997SOL     OW43431   6.047   1.143   4.896  0.2371  0.2629  0.0246
13997SOL    HW143432   6.048   1.234   4.924  3.2401  0.2068  0.4891
13997SOL    HW243433   6.054   1.147   4.800  1.4008  0.5889  0.1028
13998SOL     OW43434   5.114   5.098   4.777 -0.1643  0.3164 -0.2667
13998SOL    HW143435   5.101   5.122   4.686  2.7417 -1.0883 -1.1805
13998SOL    HW243436   5.051   5.028   4.793  0.2804 -0.4514 -1.7057
13999SOL     OW43437   3.560   6.635   0.514  0.5648  0.2990  0.6222
13999SOL    HW143438   3.570   6.651   0.608  1.3352 -0.1891  0.6251
13999SOL    HW243439   3.485   6.690   0.489 -0.5184 -0.6006  1.7780
14000SOL     OW43440   2.014   4.883   2.819  0.6214 -0.1188  0.4270
14000SOL    HW143441   2.075   4.892   2.745  0.6218  0.5722  0.5070
14000SOL    HW243442   1.927   4.894   2.780  0.5634 -0.6888  0.3824
14001SOL     OW43443   7.879   0.362   2.343 -0.2293 -0.1987  0.1556
14001SOL    HW143444   7.951   0.333   2.288 -1.0409  0.6859 -1.4304
14001SOL    HW243445   7.817   0.289   2.343 -0.0453 -0.3550  0.2295
14002SOL     OW43446   5.834   3.093   1.095  0.0319  0.1292  0.1822
14002SOL    HW143447   5.780   3.159   1.052 -0.9621 -0.4129  0.5728
14002SOL    HW243448   5.922   3.106   1.058 -0.0357  1.9680  0.6201
14003SOL     OW43449   1.949   6.073   8.213  0.2030 -0.0519 -0.0868
14003SOL    HW143450   1.991   6.033   8.290  0.0713 -0.6377 -0.3183
14003SOL    HW243451   1.858   6.085   8.239 -0.1232 -1.3472 -0.5537
14004SOL     OW43452   3.924   4.699   8.881  0.0939 -0.4302 -0.3465
14004SOL    HW143453   3.925   4.778   8.827 -0.5998 -0.5456 -0.5416
14004SOL    HW243454   3.837   4.698   8.921  0.7400 -0.1260  1.1293
14005SOL     OW43455   7.470   6.147   0.647 -0.1070 -0.1576 -0.2048
14005SOL    HW143456   7.496   6.239   0.637  0.0671 -0.2146 -0.2785
14005SOL    HW243457   7.478   6.110   0.559  0.7941 -0.4949  0.0186
14006SOL     OW43458   3.270   7.894  11.344 -0.4035 -0.8938  0.4974
14006SOL    HW143459   3.306   7.936  11.422  0.1653  1.2245 -0.8449
14006SOL    HW243460   3.346   7.858  11.299 -0.5038 -0.5031  0.0086
14007SOL     OW43461   4.733   7.231   8.096  0.0450 -0.0613 -0.1586
14007SOL    HW143462   4.657   7.277   8.132 -0.4555  0.4686 -1.7895
14007SOL    HW243463   4.795   7.226   8.169 -0.6661  1.4808  0.6069
14008SOL     OW43464   0.024   4.797   1.303  0.8268 -0.1091  0.1534
14008SOL    HW143465  -0.035   4.743   1.355 -0.1172 -0.8976 -1.6668
14008SOL    HW243466   0.093   4.737   1.274  1.8574  0.5240  1.1812
14009SOL     OW43467   2.941   5.334   8.619  0.1122  0.0130 -0.6220
14009SOL    HW143468   2.952   5.422   8.654 -0.7995 -0.2284  0.3199
14009SOL    HW243469   2.981   5.277   8.685 -2.8613 -0.5630  0.8829
14010SOL     OW43470   7.553   7.205   5.684  0.0206  0.8354 -0.3980
14010SOL    HW143471   7.593   7.262   5.749  0.2145 -0.1300  0.3528
14010SOL    HW243472   7.517   7.264   5.618  0.6875  1.7894  0.0887
14011SOL     OW43473   3.898   0.893   6.320  0.0298  0.3684  0.4995
14011SOL    HW143474   3.983   0.891   6.276  1.1139  0.4925  2.4826
14011SOL    HW243475   3.899   0.974   6.370 -0.9567 -0.0030  1.1523
14012SOL     OW43476   0.891   4.284  12.195 -0.5121  0.2874  0.7885
14012SOL    HW143477   0.819   4.254  12.250 -1.5006  0.2453 -0.4747
14012SOL    HW243478   0.952   4.325  12.255 -0.9700 -0.8186  2.0667
14013SOL     OW43479   5.576   0.661   0.672 -0.3519  0.0802 -0.1091
14013SOL    HW143480   5.610   0.572   0.665  2.6355  1.0939 -0.0513
14013SOL    HW243481   5.547   0.682   0.583  1.1770 -0.1784 -0.6971
14014SOL     OW43482   1.166   6.990   4.013  0.7031  1.0405 -0.0444
14014SOL    HW143483   1.143   7.007   3.922 -0.1799 -0.7004 -0.1889
14014SOL    HW243484   1.089   7.016   4.063  1.0395  1.6291  0.1775
14015SOL     OW43485   4.758   0.299   9.855  0.2700  0.0390  0.2578
14015SOL    HW143486   4.744   0.266   9.944  2.6421 -0.0190  0.6729
14015SOL    HW243487   4.749   0.222   9.799  1.8754 -0.5831  0.8115
14016SOL     OW43488   0.623   5.437   0.126  0.4838 -0.0034  0.3297
14016SOL    HW143489   0.617   5.356   0.177  0.8768 -0.5397 -0.4420
14016SOL    HW243490   0.616   5.507   0.190 -2.1695 -0.5923  0.7935
14017SOL     OW43491   1.360   3.579   0.012 -0.2532 -0.7161 -0.2300
14017SOL    HW143492   1.371   3.657   0.067 -3.1626  0.1870 -0.7953
14017SOL    HW243493   1.346   3.508   0.074  0.8143 -0.5233  0.2553
14018SOL     OW43494   6.967   4.648   6.845  0.0387  0.3769  0.7643
14018SOL    HW143495   6.994   4.586   6.913  0.8285  0.1570  0.2522
14018SOL    HW243496   6.899   4.601   6.796 -0.8690  0.7008  1.6538
14019SOL     OW43497   0.714   2.780   9.517 -0.2773  0.0004 -0.0601
14019SOL    HW143498   0.724   2.867   9.557  1.8810  0.4039 -1.3267
14019SOL    HW243499   0.670   2.798   9.434  0.0566 -0.1302 -0.2652
14020SOL     OW43500   7.251   5.574   6.301 -0.3224  0.0147 -0.3941
14020SOL    HW143501   7.285   5.648   6.250  0.8385 -0.5130 -0.4125
14020SOL    HW243502   7.258   5.602   6.392 -0.2142  0.0593 -0.4162
14021SOL     OW43503   1.085   2.774   3.630  0.1389  0.0041 -0.1170
14021SOL    HW143504   1.160   2.792   3.573 -0.3791 -0.2344 -0.8913
14021SOL    HW243505   1.036   2.857   3.631 -0.6839 -0.4265 -1.3163
14022SOL     OW43506   0.329   6.521   7.298  0.1819  0.1196 -0.4979
14022SOL    HW143507   0.375   6.594   7.256  3.0163 -0.6842  0.9975
14022SOL    HW243508   0.317   6.457   7.228 -0.7714  1.2408 -1.4203
14023SOL     OW43509   4.273   0.752   0.169  0.0590 -0.1023 -0.2811
14023SOL    HW143510   4.233   0.807   0.236 -1.1976 -0.3869 -0.7624
14023SOL    HW243511   4.327   0.813   0.118 -0.3439  0.4550 -0.0609
14024SOL     OW43512   2.273   0.373   0.091 -0.5938 -0.0523  0.3955
14024SOL    HW143513   2.346   0.424   0.054 -0.6492  0.7347  1.3199
14024SOL    HW243514   2.207   0.439   0.113 -1.0674 -0.6340  0.7486
14025SOL     OW43515   0.794   3.809   1.586 -0.3523 -0.3326 -0.0155
14025SOL    HW143516   0.702   3.829   1.601 -0.1223  2.4054 -1.5622
14025SOL    HW243517   0.836   3.824   1.671 -1.0556  0.4196  0.2103
14026SOL     OW43518   7.875   2.311   5.227 -0.1581 -0.1838 -0.1458
14026SOL    HW143519   7.876   2.386   5.167  1.5113 -0.6647 -0.7700
14026SOL    HW243520   7.965   2.305   5.259 -0.3175 -1.7906  0.0706
14027SOL     OW43521   5.359   0.143   6.913  0.0937  0.1603  0.0526
14027SOL    HW143522   5.314   0.221   6.883  0.3147  0.9510  1.6865
14027SOL    HW243523   5.290   0.078   6.926 -0.4296  0.9136  1.1573
14028SOL     OW43524   2.418   3.534   3.283  0.0377 -0.2817 -0.4078
14028SOL    HW143525   2.407   3.629   3.276 -1.5768 -0.3529  0.7696
14028SOL    HW243526   2.480   3.523   3.355  1.5447 -0.1081 -1.6310
14029SOL     OW43527   6.806   4.728   0.558 -0.5150  0.0683 -0.2159
14029SOL    HW143528   6.885   4.695   0.601 -2.1197 -0.9814  2.1216
14029SOL    HW243529   6.759   4.649   0.531  0.0792  0.6646 -3.5067
14030SOL     OW43530   0.430   1.056   3.757  0.1350  0.1391 -0.1145
14030SOL    HW143531   0.408   0.966   3.781 -0.4065  0.5145  0.8426
14030SOL    HW243532   0.349   1.091   3.721  0.5130  0.0655 -1.0494
14031SOL     OW43533   3.834   1.986   0.012 -0.1836 -0.6524 -0.0145
14031SOL    HW143534   3.765   1.972  -0.053 -1.0754  4.1973 -0.5173
14031SOL    HW243535   3.788   2.020   0.089  1.4501  1.1838  0.2230
14032SOL     OW43536   5.618   3.838   8.641  0.4489 -0.0712 -0.3823
14032SOL    HW143537   5.709   3.859   8.620  0.2173  0.2045 -1.1409
14032SOL    HW243538   5.610   3.744   8.623 -0.1871  0.4484 -3.3452
14033SOL     OW43539   5.490   0.573   8.568  0.0861 -0.5391  0.0306
14033SOL    HW143540   5.551   0.579   8.494  0.5639 -2.4761  0.2196
14033SOL    HW243541   5.525   0.636   8.632 -0.3173  1.1380 -1.3249
14034SOL     OW43542   6.899   5.508   7.547 -0.3588 -0.0118 -0.5819
14034SOL    HW143543   6.986   5.540   7.525 -0.9898  1.2683 -1.2694
14034SOL    HW243544   6.877   5.448   7.476 -0.8822  1.2904 -1.5531
14035SOL     OW43545   2.408   5.390   2.812 -0.7174 -0.1702  0.1888
14035SOL    HW143546   2.333   5.420   2.863 -0.9873 -1.1437  0.3758
14035SOL    HW243547   2.484   5.415   2.866 -0.9145  0.4227  0.2030
14036SOL     OW43548   7.702   7.806   3.781  0.1233 -0.0039  0.3326
14036SOL    HW143549   7.611   7.794   3.753 -0.0264  1.4652  0.1319
14036SOL    HW243550   7.729   7.888   3.740  0.8006  0.7952  2.2656
14037SOL     OW43551   6.266   4.160   9.645  0.4562  0.1916  0.3981
14037SOL    HW143552   6.254   4.247   9.683  0.1174  0.4246 -0.2063
14037SOL    HW243553   6.200   4.156   9.575 -0.6136 -1.1494  1.4112
14038SOL     OW43554   4.828   5.226   6.306 -0.3198 -0.0846  0.0687
14038SOL    HW143555   4.805   5.177   6.227  1.7916 -2.1117  0.5709
14038SOL    HW243556   4.775   5.187   6.375  0.8191 -1.2352  0.3330
14039SOL     OW43557   6.695   4.617   7.277  0.0865  0.5879 -0.1563
14039SOL    HW143558   6.758   4.592   7.345  0.5920 -0.5602 -1.0077
14039SOL    HW243559   6.715   4.708   7.258 -0.2013  1.0014  1.3591
14040SOL     OW43560   0.624   3.281   0.348 -0.1702  0.4830 -0.1217
14040SOL    HW143561   0.715   3.307   0.335 -0.1744  0.9179  0.6697
14040SOL    HW243562   0.593   3.258   0.260  0.7879  0.0136 -0.3566
14041SOL     OW43563   1.027   2.923   1.400  0.0477 -0.2017 -0.5146
14041SOL    HW143564   0.932   2.924   1.414 -0.0999  1.4541 -1.4550
14041SOL    HW243565   1.047   2.832   1.379 -1.4484 -0.4409 -1.0026
14042SOL     OW43566   2.432   4.691   5.408  0.2460  0.2005  0.5566
14042SOL    HW143567   2.399   4.620   5.463  0.2845  0.8339  1.4235
14042SOL    HW243568   2.525   4.670   5.395  0.0826 -0.2899  0.1981
14043SOL     OW43569   3.564   2.061   0.180  0.1397 -0.3097  0.1160
14043SOL    HW143570   3.626   2.131   0.159  0.4612 -0.7075 -0.2717
14043SOL    HW243571   3.549   2.070   0.274  1.1835 -0.5187  0.3213
14044SOL     OW43572   2.874   2.602  11.274  0.0265 -0.1221  0.3183
14044SOL    HW143573   2.919   2.518  11.265 -1.4287 -1.2034  2.3257
14044SOL    HW243574   2.803   2.598  11.210 -0.6982 -0.9518  1.1286
14045SOL     OW43575   1.077   4.836   3.409 -0.1979  0.0006 -0.3456
14045SOL    HW143576   1.064   4.742   3.401 -0.6735 -0.0507  0.8667
14045SOL    HW243577   0.989   4.871   3.424  0.1887  0.4127  1.1105
14046SOL     OW43578   7.281   6.859   1.531  0.1963 -0.0133  0.2329
14046SOL    HW143579   7.312   6.947   1.550 -1.0840  0.7977 -1.1706
14046SOL    HW243580   7.354   6.817   1.486  0.8826  0.2500  1.0769
14047SOL     OW43581   6.483   2.539   6.809  0.2305 -0.3216  0.4329
14047SOL    HW143582   6.439   2.458   6.833 -0.9219  0.3395  0.6329
14047SOL    HW243583   6.504   2.581   6.892 -0.4584  0.2308  0.3482
14048SOL     OW43584   1.664   7.088   0.041 -0.0382 -0.0496  0.4997
14048SOL    HW143585   1.689   7.046   0.123  0.8676 -2.0825 -0.7042
14048SOL    HW243586   1.748   7.106  -0.003 -0.3028 -4.1438 -2.2809
14049SOL     OW43587   7.694   4.843   9.478 -0.2043 -0.0488 -0.9474
14049SOL    HW143588   7.705   4.894   9.558  0.5742 -1.2648 -0.2509
14049SOL    HW243589   7.663   4.907   9.413  1.4579  1.4781 -0.3250
14050SOL     OW43590   7.691   7.219   0.381 -0.3732  0.0480  0.2249
14050SOL    HW143591   7.670   7.195   0.290  1.3448  1.2559 -0.5441
14050SOL    HW243592   7.652   7.149   0.433 -0.4491 -1.3000 -1.5203
14051SOL     OW43593   6.450   4.969   4.344  0.0071  0.1194  0.2397
14051SOL    HW143594   6.420   4.884   4.311 -0.2576  0.3042  0.0039
14051SOL    HW243595   6.518   4.947   4.408  0.7663 -0.2322 -0.6681
14052SOL     OW43596   7.255   2.701   7.162  0.4126 -0.2448 -0.3889
14052SOL    HW143597   7.338   2.730   7.126  0.3286 -0.2757 -0.6064
14052SOL    HW243598   7.210   2.658   7.089  0.0821  0.0301 -0.3536
14053SOL     OW43599   6.364   5.775  10.381  0.3135  0.1255  0.3567
14053SOL    HW143600   6.282   5.823  10.374 -0.0621 -0.5533 -0.0201
14053SOL    HW243601   6.407   5.811  10.458  0.3613  1.5399 -0.3116
14054SOL     OW43602   6.419   7.384   0.948  0.2796  0.1106 -0.1992
14054SOL    HW143603   6.356   7.438   0.899  0.8788  3.8919  2.6945
14054SOL    HW243604   6.365   7.323   0.998 -0.6514 -0.3821 -1.7492
14055SOL     OW43605   1.966   1.725   7.072  0.6393  0.4223  0.1638
14055SOL    HW143606   1.971   1.645   7.021  1.8633  0.9906 -0.6393
14055SOL    HW243607   1.976   1.796   7.008 -1.9027  1.3122  0.6309
14056SOL     OW43608   5.049   6.512   5.764 -0.6101 -0.8367 -0.0643
14056SOL    HW143609   5.075   6.425   5.735  2.3286 -0.3844  0.8516
14056SOL    HW243610   5.097   6.571   5.706  0.9560  0.0919  2.0472
14057SOL     OW43611   4.151   3.238  11.037  0.2551 -0.1361 -0.0533
14057SOL    HW143612   4.240   3.242  11.072  0.0226 -1.7629  0.8422
14057SOL    HW243613   4.162   3.244  10.942  1.2008  0.9793  0.1058
14058SOL     OW43614   4.559   6.778   7.793  0.3721 -0.0616  0.1258
14058SOL    HW143615   4.628   6.719   7.762  0.0476 -0.1789 -0.3857
14058SOL    HW243616   4.525   6.736   7.873  0.4079 -0.3713 -0.0207
14059SOL     OW43617   4.543   5.044   0.153 -0.6091 -0.5012  0.1847
14059SOL    HW143618   4.572   4.960   0.188  0.0740  0.0036  0.8438
14059SOL    HW243619   4.572   5.043   0.062  0.4826 -0.4713  0.5239
14060SOL     OW43620   6.915   3.353   4.076 -0.4185  0.2080  0.3708
14060SOL    HW143621   6.923   3.277   4.019 -0.5215  0.8019 -0.4398
14060SOL    HW243622   6.970   3.331   4.152  1.0397  0.0881 -0.6760
14061SOL     OW43623   4.464   4.503   5.683 -0.1556 -0.1412  0.4331
14061SOL    HW143624   4.417   4.549   5.613  0.7557  1.5732  0.8722
14061SOL    HW243625   4.483   4.417   5.647 -0.2932  0.4673 -1.1899
14062SOL     OW43626   6.550   2.588   1.499  0.1665  0.3230 -0.2273
14062SOL    HW143627   6.491   2.642   1.552  0.4399  1.8214 -1.3541
14062SOL    HW243628   6.491   2.534   1.445 -0.1649  0.8549 -0.4079
14063SOL     OW43629   0.491   3.255   6.445  0.1236  0.2409 -0.1541
14063SOL    HW143630   0.451   3.274   6.530  0.4601 -0.1652  0.1007
14063SOL    HW243631   0.584   3.244   6.464  0.0537 -0.9601 -0.3830
14064SOL     OW43632   7.714   2.358   0.729  0.2506  0.0719 -0.2255
14064SOL    HW143633   7.680   2.445   0.708  0.7742  0.2237 -0.4801
14064SOL    HW243634   7.792   2.375   0.782  0.3956 -0.2422 -0.3366
14065SOL     OW43635   7.236   3.866   9.863  0.6278 -0.8086 -0.2673
14065SOL    HW143636   7.169   3.924   9.827  3.2781  1.8254 -1.3510
14065SOL    HW243637   7.278   3.827   9.786  0.9014 -1.7759  0.3516
14066SOL     OW43638   1.105   4.678   7.761  0.2576  0.2961 -0.2718
14066SOL    HW143639   1.192   4.715   7.775  0.3865 -0.2188  0.3620
14066SOL    HW243640   1.045   4.740   7.803  0.3968  0.2070  0.0579
14067SOL     OW43641   5.082   2.958   7.222 -0.0153  0.5512 -0.2101
14067SOL    HW143642   5.046   2.989   7.139 -1.4407  0.6219  0.3917
14067SOL    HW243643   5.054   3.023   7.286  0.3011  0.0427  0.4592
14068SOL     OW43644   3.044   1.966  11.344  0.1460  0.8335 -0.8986
14068SOL    HW143645   3.114   1.900  11.338 -0.1658  0.4598 -0.5316
14068SOL    HW243646   3.070   2.035  11.283  1.0748  0.9241 -0.4103
14069SOL     OW43647   3.819   5.535   0.837  0.0555 -0.2853  0.3657
14069SOL    HW143648   3.897   5.514   0.889  0.5930 -0.4943 -0.4974
14069SOL    HW243649   3.842   5.507   0.749 -1.5432 -1.6872  0.3479
14070SOL     OW43650   2.076   0.884  10.155  0.2968  0.2869 -0.0224
14070SOL    HW143651   2.007   0.866  10.090  0.7981  1.5584 -0.9522
14070SOL    HW243652   2.157   0.879  10.105  0.6126  2.7675  0.0857
14071SOL     OW43653   5.891   3.809   1.168 -0.1859 -0.0748 -0.5401
14071SOL    HW143654   5.889   3.716   1.147 -1.3092  0.0827 -1.1543
14071SOL    HW243655   5.949   3.847   1.102  0.6073 -0.3709 -0.0446
14072SOL     OW43656   6.522   2.144   9.126 -0.5871  0.2856 -0.0706
14072SOL    HW143657   6.618   2.145   9.122 -0.6086  1.1458 -0.5814
14072SOL    HW243658   6.496   2.228   9.089 -1.6004 -0.5267 -1.2818
14073SOL     OW43659   3.018   0.661   1.422 -0.0071 -0.1404 -0.7405
14073SOL    HW143660   2.990   0.718   1.351  1.1762  0.3119 -0.8734
14073SOL    HW243661   3.072   0.594   1.378  0.8007  0.1918 -0.2755
14074SOL     OW43662   3.353   5.887   7.811 -0.2850 -0.4907 -0.1370
14074SOL    HW143663   3.334   5.812   7.868 -1.6461  1.5215  2.2729
14074SOL    HW243664   3.298   5.873   7.733 -3.9945 -0.0508  2.1318
14075SOL     OW43665   5.283   4.923   7.077  0.3565 -0.5118  0.6141
14075SOL    HW143666   5.355   4.976   7.044  1.6298 -1.1616  2.1874
14075SOL    HW243667   5.208   4.948   7.024  1.3990  1.2696 -0.1037
14076SOL     OW43668   5.811   7.639   4.557 -0.5896 -0.1171 -0.3313
14076SOL    HW143669   5.773   7.552   4.541 -0.0596 -0.5539  0.6800
14076SOL    HW243670   5.861   7.628   4.638  0.3902  0.8539 -0.7902
14077SOL     OW43671   2.101   7.494   1.945  0.0352  0.4845 -0.2131
14077SOL    HW143672   2.184   7.453   1.921  0.3857  0.8493  0.3585
14077SOL    HW243673   2.122   7.587   1.956 -0.4347  0.5681  0.0029
14078SOL     OW43674   5.138   0.662   9.411 -0.3335 -0.4288  0.6922
14078SOL    HW143675   5.233   0.648   9.405 -0.5949 -1.9146 -0.3950
14078SOL    HW243676   5.126   0.753   9.386  0.6910 -0.6065 -0.5835
14079SOL     OW43677   6.898   0.305   6.477 -0.1949 -0.4746  0.0538
14079SOL    HW143678   6.990   0.279   6.470  0.1840  0.8183  0.0486
14079SOL    HW243679   6.857   0.267   6.399  0.4946 -0.4265 -0.3472
14080SOL     OW43680   1.484   0.947   1.698 -0.4536  0.2907  0.0939
14080SOL    HW143681   1.563   0.978   1.742 -0.7213  0.0352  0.7859
14080SOL    HW243682   1.476   0.855   1.725 -0.6575  0.1417 -0.4563
14081SOL     OW43683   3.002   3.001  12.199  0.0084  0.0904  0.1557
14081SOL    HW143684   2.970   3.066  12.262 -1.6261 -0.3837 -0.1294
14081SOL    HW243685   2.975   3.036  12.114 -1.9041 -1.4453  0.0663
14082SOL     OW43686   7.183   7.755   0.411 -0.4341  0.1623 -1.1256
14082SOL    HW143687   7.144   7.735   0.326  0.8163  0.7684 -1.8843
14082SOL    HW243688   7.267   7.709   0.410 -0.5277 -0.0441 -0.0968
14083SOL     OW43689   3.201   6.749  11.790  0.4922  0.1608 -0.3466
14083SOL    HW143690   3.264   6.688  11.751  1.9857  1.4710 -0.0757
14083SOL    HW243691   3.156   6.788  11.715  1.1674  0.3963 -0.6414
14084SOL     OW43692   6.330   4.997  12.050  0.1766  0.4866  0.0445
14084SOL    HW143693   6.404   4.984  11.991 -0.8816 -0.0471 -1.2271
14084SOL    HW243694   6.277   5.064  12.006 -0.5405  0.2196  0.4873
14085SOL     OW43695   7.386   3.590  11.349  0.5107  0.1282  0.3267
14085SOL    HW143696   7.455   3.529  11.323  1.2502  0.9228  0.3651
14085SOL    HW243697   7.338   3.545  11.418  0.3790 -0.8189 -0.3668
14086SOL     OW43698   0.696   7.159   7.761  0.4512  0.3400 -0.2368
14086SOL    HW143699   0.643   7.139   7.838 -0.1531  0.1819 -0.6869
14086SOL    HW243700   0.730   7.075   7.733  0.6953  0.4021 -0.1292
14087SOL     OW43701   5.922   0.317   1.833  0.3289  0.5963  0.4160
14087SOL    HW143702   5.908   0.225   1.856  1.8131  0.2479 -0.0060
14087SOL    HW243703   5.950   0.358   1.914 -2.4125  1.2030  1.1571
14088SOL     OW43704   1.403   5.887   6.677 -0.4408  0.3576 -0.2792
14088SOL    HW143705   1.499   5.895   6.682 -0.3291 -0.7078 -0.4056
14088SOL    HW243706   1.376   5.958   6.619  0.0122  2.1455  1.5856
14089SOL     OW43707   4.389   2.156   1.609 -0.1889 -0.2106 -0.3482
14089SOL    HW143708   4.481   2.178   1.623 -0.4574  0.0355  1.2353
14089SOL    HW243709   4.391   2.079   1.552  0.9338  0.5418 -1.4008
14090SOL     OW43710   2.553   1.212   9.134 -0.2496 -0.6818 -0.4620
14090SOL    HW143711   2.647   1.217   9.149 -0.1995 -0.2057 -0.9026
14090SOL    HW243712   2.543   1.217   9.039 -0.6564 -1.9209 -0.4961
14091SOL     OW43713   5.721   0.996   4.872  0.8303  0.1327  0.2748
14091SOL    HW143714   5.722   0.974   4.779  0.6978  1.0443  0.0525
14091SOL    HW243715   5.766   0.923   4.914 -0.0020 -0.7961 -0.3861
14092SOL     OW43716   1.492   5.076  11.426 -0.3332 -0.0252 -0.4864
14092SOL    HW143717   1.473   5.085  11.519  0.0975 -1.0272 -0.2868
14092SOL    HW243718   1.529   5.160  11.400 -0.6911  0.3456  0.1875
14093SOL     OW43719   7.532   1.535   0.561 -0.5132  0.5622  0.5252
14093SOL    HW143720   7.583   1.456   0.545 -1.3648 -0.0872  0.8762
14093SOL    HW243721   7.505   1.565   0.474 -0.9088 -0.0437  0.4313
14094SOL     OW43722   1.091   1.208   9.449 -0.8601  0.0227 -0.1534
14094SOL    HW143723   1.097   1.256   9.367  3.8184  0.8439  0.3689
14094SOL    HW243724   1.070   1.275   9.514  2.2818  0.9030  0.1057
14095SOL     OW43725   5.086   0.411  12.239 -0.0131 -0.5003  0.1168
14095SOL    HW143726   5.136   0.402  12.320  0.2416 -1.5198 -0.1447
14095SOL    HW243727   5.093   0.326  12.196 -1.7027 -0.5790 -0.0814
14096SOL     OW43728   3.653   1.170   1.822 -0.0386  0.1048  0.1819
14096SOL    HW143729   3.591   1.207   1.759  0.4048 -0.1697 -0.4318
14096SOL    HW243730   3.700   1.246   1.856 -1.0831  0.3712  1.0721
14097SOL     OW43731   6.871   0.423   3.190  0.4598  0.1954 -0.2378
14097SOL    HW143732   6.869   0.415   3.095  1.9492 -0.2111 -0.2655
14097SOL    HW243733   6.964   0.421   3.212  0.1201 -0.3855  1.2743
14098SOL     OW43734   6.730   1.295   7.421  0.0972 -0.5186 -0.2432
14098SOL    HW143735   6.701   1.386   7.426 -0.3481 -0.7082  1.0847
14098SOL    HW243736   6.746   1.280   7.328  0.4094  0.9833 -0.4618
14099SOL     OW43737   0.039   1.466   8.820  0.2678 -0.1084 -0.2262
14099SOL    HW143738   0.054   1.395   8.757  2.1925  0.6034 -0.6404
14099SOL    HW243739  -0.002   1.424   8.895 -0.2601 -1.3273 -1.1711
14100SOL     OW43740   0.967   6.212   4.141 -0.3193  0.3538 -0.2291
14100SOL    HW143741   1.032   6.254   4.085 -1.3797 -0.4188 -2.1457
14100SOL    HW243742   0.981   6.118   4.127  0.6306  0.0377  2.3396
14101SOL     OW43743   5.312   7.839   7.851 -1.1662 -0.3230 -0.1882
14101SOL    HW143744   5.288   7.853   7.943 -0.6923  1.2643 -0.2682
14101SOL    HW243745   5.407   7.829   7.853 -1.0134  0.8263 -0.5812
14102SOL     OW43746   1.421   3.645   1.952  0.4898  0.1736 -0.2063
14102SOL    HW143747   1.381   3.658   1.866 -0.3834  1.2214  0.3386
14102SOL    HW243748   1.471   3.563   1.943 -0.9667 -0.6500 -1.2079
14103SOL     OW43749   0.980   4.309  11.937  0.5253  0.2796  0.4733
14103SOL    HW143750   1.051   4.372  11.926  0.9185 -0.2229  0.0869
14103SOL    HW243751   0.960   4.312  12.031  0.8820  0.6102  0.5438
14104SOL     OW43752   3.264   7.735   7.003  0.3009  0.2909  0.0997
14104SOL    HW143753   3.197   7.797   6.973  0.9558  1.2074  0.4728
14104SOL    HW243754   3.334   7.743   6.939  1.6966  2.2359  1.7382
14105SOL     OW43755   0.314   4.065   9.263  0.4904  0.0449 -0.2396
14105SOL    HW143756   0.261   4.128   9.214 -0.4320 -0.6626 -0.1847
14105SOL    HW243757   0.303   4.090   9.355 -0.1834 -0.4025 -0.1880
14106SOL     OW43758   2.223   6.696   4.680 -0.2234 -0.3964  0.4362
14106SOL    HW143759   2.273   6.639   4.738  0.0554  0.1259  0.7145
14106SOL    HW243760   2.189   6.765   4.737  0.8617  0.6679 -0.1586
14107SOL     OW43761   5.809   0.475   1.618  0.5543 -0.0664  0.3114
14107SOL    HW143762   5.881   0.436   1.668  0.6159  1.5568  1.5650
14107SOL    HW243763   5.804   0.566   1.649 -2.0348 -0.1201  0.2715
14108SOL     OW43764   3.276   6.617   6.205 -0.2014  0.9760  0.4626
14108SOL    HW143765   3.235   6.698   6.237  0.4215  1.0217  1.1702
14108SOL    HW243766   3.325   6.644   6.128 -1.1403  1.0008 -0.1494
14109SOL     OW43767   2.630   0.772  11.471 -0.1163 -0.1780 -0.0001
14109SOL    HW143768   2.679   0.834  11.525 -0.4732  1.5267 -1.5312
14109SOL    HW243769   2.692   0.746  11.403  0.0621 -1.6454  0.6827
14110SOL     OW43770   3.955   6.469   3.619  0.3063  0.1338  0.3475
14110SOL    HW143771   3.914   6.543   3.662 -0.3570 -0.4932  0.8241
14110SOL    HW243772   3.882   6.418   3.585  0.7117 -0.6788  0.6589
14111SOL     OW43773   0.304   6.295   2.774  0.0388  0.1806  0.9518
14111SOL    HW143774   0.311   6.254   2.688  0.3869  1.6437  0.2585
14111SOL    HW243775   0.380   6.261   2.822  1.4992  1.5211 -0.2957
14112SOL     OW43776   2.926   1.896   8.243  0.2495 -0.2176  0.0947
14112SOL    HW143777   2.868   1.926   8.174 -1.1636 -2.9019 -0.0004
14112SOL    HW243778   2.999   1.855   8.197 -0.8468 -2.2914  0.0894
14113SOL     OW43779   4.406   1.873   9.877 -0.0454  1.0056  0.0266
14113SOL    HW143780   4.413   1.945   9.814 -0.5160  1.6983  0.7394
14113SOL    HW243781   4.338   1.816   9.840  2.0080 -0.4040 -1.7724
14114SOL     OW43782   2.085   0.610  10.507 -0.1700  0.7524  0.1522
14114SOL    HW143783   2.146   0.675  10.541  0.1800  0.0937  0.8197
14114SOL    HW243784   2.140   0.546  10.462 -0.5086  0.9097 -0.4860
14115SOL     OW43785   3.640   0.175  11.544  0.0754 -0.0996  0.1031
14115SOL    HW143786   3.643   0.271  11.548  0.8058 -0.1533  1.5947
14115SOL    HW243787   3.551   0.153  11.575 -0.0633  0.0844 -0.1602
14116SOL     OW43788   2.226   6.310   1.944  0.1216 -0.4786  0.1844
14116SOL    HW143789   2.150   6.258   1.969 -1.1142  0.0182 -2.1617
14116SOL    HW243790   2.191   6.398   1.930  1.5759  0.2810  1.1582
14117SOL     OW43791   4.141   2.321  11.679 -0.1104  0.2769 -0.3588
14117SOL    HW143792   4.199   2.393  11.702  0.8056 -0.4629 -0.2995
14117SOL    HW243793   4.053   2.354  11.698  0.3584  1.0373  0.5838
14118SOL     OW43794   0.213   4.930   2.318  0.4548 -0.1327 -0.3191
14118SOL    HW143795   0.146   4.911   2.252  0.7373 -1.7933 -0.1835
14118SOL    HW243796   0.164   4.939   2.400  0.3716 -1.3977 -0.2100
14119SOL     OW43797   1.209   7.848  11.656 -0.2682  0.2524 -0.0985
14119SOL    HW143798   1.116   7.842  11.676  0.0706 -0.7842  1.3551
14119SOL    HW243799   1.244   7.761  11.677  0.9036  0.3958 -1.3302
14120SOL     OW43800   2.111   2.420   6.519 -0.2986  0.4517  0.8229
14120SOL    HW143801   2.122   2.327   6.535  0.2850  0.6817  1.8275
14120SOL    HW243802   2.026   2.441   6.557 -0.3908  0.3544  0.6727
14121SOL     OW43803   0.931   2.849   5.707  0.0906 -0.0367  0.1674
14121SOL    HW143804   0.847   2.889   5.688 -0.0785 -0.2604  0.4346
14121SOL    HW243805   0.992   2.923   5.712  0.4576 -0.0619 -2.6583
14122SOL     OW43806   1.737   3.283   0.670  0.0972  0.2884 -0.2891
14122SOL    HW143807   1.642   3.293   0.682  0.1664 -0.4036  0.9907
14122SOL    HW243808   1.750   3.292   0.576 -1.1555  1.0648 -0.4196
14123SOL     OW43809   1.774   6.175  11.140  0.2368 -0.1171 -0.3685
14123SOL    HW143810   1.709   6.194  11.207  0.9120  1.7377 -0.1816
14123SOL    HW243811   1.826   6.104  11.177 -1.7864 -1.8607 -0.6442
14124SOL     OW43812   6.491   4.983   9.629  0.5791  0.1422  0.3402
14124SOL    HW143813   6.504   4.898   9.671  1.6764  1.1230  2.1106
14124SOL    HW243814   6.579   5.020   9.621 -0.0535  2.3496  2.4241
14125SOL     OW43815   4.713   5.583   1.379  0.1398  0.0949  0.2787
14125SOL    HW143816   4.787   5.581   1.318  0.0387 -0.9822  0.1646
14125SOL    HW243817   4.745   5.538   1.457 -0.6958 -1.3084 -0.1525
14126SOL     OW43818   7.740   1.146   6.247  0.3354 -0.2803 -0.7441
14126SOL    HW143819   7.683   1.087   6.296  1.0018  0.1434  0.5947
14126SOL    HW243820   7.731   1.118   6.156 -2.1209 -0.1237 -0.6227
14127SOL     OW43821   0.580   0.116   1.599 -0.5161 -0.1839 -0.2803
14127SOL    HW143822   0.602   0.174   1.525  0.4775 -1.5834 -1.1302
14127SOL    HW243823   0.645   0.047   1.595 -1.2321 -0.9796  1.1604
14128SOL     OW43824   5.351   0.018   5.905  0.0162  0.3329  0.2957
14128SOL    HW143825   5.413  -0.048   5.936 -1.5265 -1.4349 -0.1604
14128SOL    HW243826   5.337  -0.005   5.813 -1.1982  0.7567  0.3644
14129SOL     OW43827   4.054   2.114   2.469  0.0609 -0.4569  0.2068
14129SOL    HW143828   4.018   2.196   2.504 -0.8398 -0.9819  0.5583
14129SOL    HW243829   4.120   2.141   2.406 -1.9615  0.6256 -1.6017
14130SOL     OW43830   5.528   5.363   0.489 -0.1379  0.1794  0.3153
14130SOL    HW143831   5.571   5.429   0.543  0.7273 -0.2576  0.1800
14130SOL    HW243832   5.580   5.284   0.502 -0.6659 -0.2536 -0.1759
14131SOL     OW43833   2.092   6.644  10.711  0.1228  0.0963 -0.3680
14131SOL    HW143834   2.102   6.709  10.642  0.0191  3.9093  2.8398
14131SOL    HW243835   2.167   6.658  10.768 -0.7666 -1.5336  1.3351
14132SOL     OW43836   6.086   0.467   4.103 -0.8453 -0.0542  0.1710
14132SOL    HW143837   6.069   0.559   4.078 -0.1546  0.3328  1.0892
14132SOL    HW243838   6.169   0.446   4.060  0.2992  0.5828  1.9450
14133SOL     OW43839   1.953   3.037  11.320 -0.1976  0.3070  1.0318
14133SOL    HW143840   2.034   3.049  11.272 -0.6757 -0.4617 -0.0208
14133SOL    HW243841   1.979   2.995  11.402  0.5744  1.1091  1.2054
14134SOL     OW43842   7.645   0.663   3.761 -0.2667 -0.3003  0.3063
14134SOL    HW143843   7.633   0.721   3.685  0.8039  0.7657  0.9185
14134SOL    HW243844   7.694   0.588   3.727 -2.2455 -1.2366 -0.6453
14135SOL     OW43845   4.500   7.209   9.081 -0.0583 -0.6101  0.5387
14135SOL    HW143846   4.430   7.274   9.081  1.0142  0.5839  0.9255
14135SOL    HW243847   4.580   7.260   9.093  0.8985 -1.9269 -0.0375
14136SOL     OW43848   7.216   4.041   8.624  0.7910  0.1774  0.7479
14136SOL    HW143849   7.197   4.120   8.573 -0.3688 -0.5891 -0.0583
14136SOL    HW243850   7.134   3.992   8.623  1.3911 -0.8737  1.5350
14137SOL     OW43851   1.569   4.099  11.421 -0.2544  0.3984 -0.3253
14137SOL    HW143852   1.589   4.140  11.506 -0.6930  0.5443 -0.2935
14137SOL    HW243853   1.653   4.062  11.393 -0.3789 -0.7998  0.7879
14138SOL     OW43854   2.856   1.070   2.035 -0.0815  0.4362  0.1023
14138SOL    HW143855   2.881   1.162   2.031  1.5168  0.1654  2.1332
14138SOL    HW243856   2.869   1.046   2.127 -1.0197 -1.6821 -0.2621
14139SOL     OW43857   0.631   2.534  10.425  0.1917  0.3179 -0.2628
14139SOL    HW143858   0.643   2.507  10.516 -1.3517  0.1620 -0.0800
14139SOL    HW243859   0.684   2.472  10.374 -2.4665 -2.6005  0.2141
14140SOL     OW43860   5.425   4.308   8.875  0.0393  0.3088  0.4275
14140SOL    HW143861   5.362   4.241   8.902 -1.0607  0.5587 -1.4050
14140SOL    HW243862   5.510   4.264   8.878 -0.6336 -1.1013 -0.4572
14141SOL     OW43863   4.456   0.023  10.016 -0.0217  0.1910  0.3003
14141SOL    HW143864   4.505   0.040  10.096 -0.4222  2.0304  0.1942
14141SOL    HW243865   4.522   0.025   9.947 -0.1502  2.4670  0.1795
14142SOL     OW43866   4.928   2.894   2.488  0.1226  0.3499 -0.5077
14142SOL    HW143867   4.925   2.802   2.516  1.3004  0.4372  0.0118
14142SOL    HW243868   4.858   2.903   2.424  0.2352 -1.0115 -0.8472
14143SOL     OW43869   0.535   1.660   9.584  0.3443  0.0680  0.4472
14143SOL    HW143870   0.583   1.638   9.504  0.4730  1.5745  0.0900
14143SOL    HW243871   0.444   1.643   9.563  0.3994  0.2532  0.0469
14144SOL     OW43872   3.380   1.344   3.336 -0.1838 -0.6515  0.3352
14144SOL    HW143873   3.404   1.425   3.382 -0.9686 -0.7502  0.9563
14144SOL    HW243874   3.333   1.374   3.258 -0.8382 -0.5000  0.7767
14145SOL     OW43875   6.665   7.391   4.048 -0.0245 -0.5619 -0.1354
14145SOL    HW143876   6.690   7.381   4.139 -0.1936 -1.4942 -0.1889
14145SOL    HW243877   6.745   7.375   3.998  0.8984  3.0580 -0.0833
14146SOL     OW43878   5.645   0.868   7.637  0.3266 -0.0723 -0.1643
14146SOL    HW143879   5.734   0.832   7.633  0.3522  0.0784 -1.8497
14146SOL    HW243880   5.592   0.805   7.588 -0.2238  0.5584 -0.3918
14147SOL     OW43881   2.722   7.024   8.590 -0.0017  0.0317 -0.0192
14147SOL    HW143882   2.741   7.093   8.528 -0.8526  0.1453 -0.1652
14147SOL    HW243883   2.730   7.065   8.676  1.6180 -0.2366 -0.0175
14148SOL     OW43884   6.143   5.288   1.723  0.2669 -0.8278  0.2024
14148SOL    HW143885   6.218   5.229   1.712 -0.1129 -1.1951 -0.4508
14148SOL    HW243886   6.094   5.251   1.796  0.5093 -0.8159  0.3713
14149SOL     OW43887   0.272   0.919   5.616 -0.4107  0.4964 -0.3775
14149SOL    HW143888   0.284   1.009   5.585 -0.0847  1.6023  2.6639
14149SOL    HW243889   0.360   0.881   5.613  0.0897  1.4088  1.3469
14150SOL     OW43890   5.107   6.910   2.406  0.0885  0.4147 -0.2317
14150SOL    HW143891   5.011   6.910   2.400  0.0827 -2.1226 -1.4413
14150SOL    HW243892   5.136   6.956   2.327 -0.1815 -0.6836 -1.0042
14151SOL     OW43893   5.731   4.360  10.505  0.3834 -0.1757 -0.7011
14151SOL    HW143894   5.764   4.293  10.445  0.2799 -0.7045 -0.1823
14151SOL    HW243895   5.640   4.333  10.522  0.6003 -0.3928  0.1728
14152SOL     OW43896   0.407   5.103   7.428  0.6248  0.7084 -0.3468
14152SOL    HW143897   0.439   5.185   7.466 -1.4999  1.7366 -0.6807
14152SOL    HW243898   0.340   5.072   7.489  0.8143 -0.3740 -0.6541
14153SOL     OW43899   0.306   3.244   3.589  0.0819 -0.4051  0.0041
14153SOL    HW143900   0.390   3.198   3.597  0.7517  0.9577  1.4190
14153SOL    HW243901   0.324   3.316   3.528  0.4072  0.7835  1.4463
14154SOL     OW43902   7.649   1.444   5.612  0.2932  0.1037 -0.4592
14154SOL    HW143903   7.583   1.511   5.627  1.6963  1.5365 -0.4832
14154SOL    HW243904   7.714   1.458   5.680  1.3181 -0.3145 -1.3265
14155SOL     OW43905   6.296   7.322   7.777  0.5144  0.2226  0.0753
14155SOL    HW143906   6.293   7.408   7.734  1.9640  0.5044  0.4897
14155SOL    HW243907   6.219   7.276   7.743  0.6343  1.0751 -1.4669
14156SOL     OW43908   4.674   7.351   6.332 -0.5772 -0.1692  0.0572
14156SOL    HW143909   4.736   7.362   6.404 -1.0197  0.1872  0.3854
14156SOL    HW243910   4.590   7.333   6.375 -1.3003  2.0837 -0.2728
14157SOL     OW43911   7.083   3.053  12.012  0.6685  0.5084 -0.2214
14157SOL    HW143912   6.991   3.029  12.025  0.8663  0.3243  1.0123
14157SOL    HW243913   7.100   3.118  12.080  1.0820  1.5999 -1.3466
14158SOL     OW43914   3.830   4.842   3.587  0.3635  0.3724  0.1932
14158SOL    HW143915   3.859   4.905   3.522 -0.0158  2.5274  1.9879
14158SOL    HW243916   3.909   4.818   3.635  0.5874 -0.9566 -0.7764
14159SOL     OW43917   6.480   1.703  11.311 -0.0307  0.2930  0.0967
14159SOL    HW143918   6.565   1.745  11.298  1.0779 -1.5043  1.1281
14159SOL    HW243919   6.438   1.755  11.380  0.7734  0.4788  0.4563
14160SOL     OW43920   6.302   5.042   9.434  0.2024 -0.1208  0.5864
14160SOL    HW143921   6.306   4.977   9.364  1.7881  1.1578 -0.5706
14160SOL    HW243922   6.357   5.006   9.504  0.8836 -0.1218  0.0511
14161SOL     OW43923   3.371   5.453   9.750  0.1883 -0.2337 -0.1222
14161SOL    HW143924   3.287   5.440   9.706  1.7368 -4.0429 -2.4287
14161SOL    HW243925   3.429   5.485   9.681  1.1892  0.1861  0.8889
14162SOL     OW43926   5.329   6.062  11.386  0.1911  0.1197 -0.2230
14162SOL    HW143927   5.237   6.082  11.402  0.3762 -0.5477  2.1337
14162SOL    HW243928   5.339   6.068  11.291 -1.7468  2.3602 -0.3725
14163SOL     OW43929   5.915   5.847  12.153  0.0488 -0.0586 -0.1117
14163SOL    HW143930   5.842   5.856  12.093 -0.3180 -0.2335  0.3052
14163SOL    HW243931   5.928   5.935  12.188  0.5041  0.1238 -0.7150
14164SOL     OW43932   3.473   1.016  11.661 -0.1600  0.8160  0.1706
14164SOL    HW143933   3.443   1.073  11.590 -0.2067 -0.4982 -0.8844
14164SOL    HW243934   3.566   1.003  11.644 -0.6875 -1.6788 -1.2795
14165SOL     OW43935   0.077   3.903   6.553  0.4256  0.1499  0.2153
14165SOL    HW143936   0.001   3.959   6.563  1.1296  1.0055  0.9624
14165SOL    HW243937   0.146   3.961   6.521  0.8078 -0.5802 -0.3252
14166SOL     OW43938   0.343   6.047   7.384  0.0267 -0.3231 -0.0674
14166SOL    HW143939   0.251   6.025   7.375 -0.5959  2.5526 -2.0974
14166SOL    HW243940   0.369   6.079   7.297  2.8767 -0.7338  0.5225
14167SOL     OW43941   7.215   2.543   0.983  0.4226  0.1719  0.2287
14167SOL    HW143942   7.179   2.481   0.920  2.6197  0.6331 -1.6429
14167SOL    HW243943   7.186   2.629   0.953  1.7250  0.4204 -0.4044
14168SOL     OW43944   1.008   1.250   9.172 -0.6134 -0.4656  0.6223
14168SOL    HW143945   1.056   1.308   9.113  1.2195 -3.6826 -1.3864
14168SOL    HW243946   0.917   1.280   9.168 -0.3111  0.4059 -2.7302
14169SOL     OW43947   5.376   5.194   2.176 -0.0503  0.1301  0.2076
14169SOL    HW143948   5.287   5.189   2.141 -0.1415 -2.2062  0.6724
14169SOL    HW243949   5.426   5.236   2.106 -1.3235  0.7289 -0.3890
14170SOL     OW43950   6.453   5.003   5.040 -0.6366 -0.2462 -0.6402
14170SOL    HW143951   6.532   5.017   5.092 -2.3281  1.5693  1.6788
14170SOL    HW243952   6.453   5.074   4.976 -0.6356  0.0947 -0.2669
14171SOL     OW43953   7.010   2.992  10.909 -0.0735 -0.1685 -0.0156
14171SOL    HW143954   6.918   3.017  10.897  0.1482  0.0904 -1.3334
14171SOL    HW243955   7.010   2.897  10.904 -0.2867 -0.1743  0.0897
14172SOL     OW43956   5.650   2.001   7.352  0.2953  0.1221 -0.0356
14172SOL    HW143957   5.635   2.095   7.351 -0.3922  0.0354  0.8608
14172SOL    HW243958   5.737   1.990   7.388  0.0557  0.3858  0.6306
14173SOL     OW43959   6.731   2.456   2.649 -0.2014  0.0928  0.0011
14173SOL    HW143960   6.672   2.501   2.588  0.1405 -0.9615 -1.1479
14173SOL    HW243961   6.686   2.460   2.734 -0.7450  1.4765 -0.3258
14174SOL     OW43962   2.028   0.374   7.259  0.1471 -0.6098  0.2077
14174SOL    HW143963   2.019   0.326   7.341  0.4898 -0.5046  0.3099
14174SOL    HW243964   2.121   0.396   7.255 -0.3069  1.6637  1.0739
14175SOL     OW43965   7.289   6.633   8.329  0.3631  0.1730 -0.3869
14175SOL    HW143966   7.211   6.614   8.383 -0.7025 -0.5523 -2.1038
14175SOL    HW243967   7.290   6.563   8.264  2.1687  0.5028 -0.7375
14176SOL     OW43968   0.273   7.612   1.847  0.6450  0.4645  0.0928
14176SOL    HW143969   0.188   7.656   1.845 -0.1770 -1.0300 -1.4412
14176SOL    HW243970   0.331   7.669   1.797  0.2864  1.0614  0.3582
14177SOL     OW43971   4.295   2.441  11.449  0.5725  0.1116  1.1174
14177SOL    HW143972   4.305   2.498  11.372  2.4518  0.1976  1.3832
14177SOL    HW243973   4.211   2.397  11.435 -0.2279  1.8388  0.1818
14178SOL     OW43974   5.817   2.887   1.661  0.0456 -0.5601  0.5211
14178SOL    HW143975   5.884   2.907   1.595 -0.8696 -0.0704 -0.2981
14178SOL    HW243976   5.755   2.830   1.615  0.8242 -2.5528  1.8159
14179SOL     OW43977   7.323   1.593   8.928  0.7115 -0.2785 -0.0958
14179SOL    HW143978   7.305   1.659   8.860 -1.7048 -0.5421  0.1791
14179SOL    HW243979   7.335   1.644   9.008  1.3701 -0.0743 -0.3162
14180SOL     OW43980   2.812   5.991   2.706  0.0855  0.6825  0.5177
14180SOL    HW143981   2.789   5.901   2.683 -0.2781  0.5723  1.2676
14180SOL    HW243982   2.751   6.045   2.656  0.6045  0.5373 -0.2857
14181SOL     OW43983   7.782   4.610  10.249  0.0241  0.6819  1.0136
14181SOL    HW143984   7.731   4.681  10.287 -0.0306  1.1584  0.0864
14181SOL    HW243985   7.792   4.634  10.157  0.3829 -0.2968  0.7798
14182SOL     OW43986   6.183   5.848   3.932  0.3412  0.2421 -0.5174
14182SOL    HW143987   6.094   5.857   3.967 -0.3183  1.2915 -2.3023
14182SOL    HW243988   6.206   5.937   3.904  1.2842 -0.3215 -1.6056
14183SOL     OW43989   2.169   7.229  11.461  0.0859 -0.1114  0.4980
14183SOL    HW143990   2.195   7.209  11.551 -1.6473 -1.5196  0.7399
14183SOL    HW243991   2.223   7.171  11.407  0.1426 -0.2728  0.7279
14184SOL     OW43992   5.311   0.800   5.977  0.3366  0.1795  0.5052
14184SOL    HW143993   5.302   0.847   5.895 -2.4968 -0.2241  0.4811
14184SOL    HW243994   5.221   0.788   6.008  1.2683  0.6343  3.8647
14185SOL     OW43995   1.487   5.688  10.530  0.1732 -0.2248 -0.7638
14185SOL    HW143996   1.515   5.707  10.620 -1.9695 -0.5648  0.0258
14185SOL    HW243997   1.474   5.593  10.529 -1.9331  0.0207 -0.7323
14186SOL     OW43998   7.014   7.256   1.069  0.1168  0.1621  0.3100
14186SOL    HW143999   7.106   7.263   1.044 -0.5638  0.6127 -2.4534
14186SOL    HW244000   6.970   7.323   1.016 -1.7678  0.2495  1.8649
14187SOL     OW44001   2.297   5.826  11.034  0.3625 -0.0058 -0.0657
14187SOL    HW144002   2.315   5.747  11.085 -1.4222 -1.0621 -0.9841
14187SOL    HW244003   2.318   5.899  11.093 -0.4694 -1.1729  1.7404
14188SOL     OW44004   7.788   2.622  10.277  0.3301 -0.0431 -0.6123
14188SOL    HW144005   7.765   2.609  10.185  0.5417 -0.0192 -0.6695
14188SOL    HW244006   7.866   2.569  10.290 -0.3107 -0.9068 -0.1670
14189SOL     OW44007   6.324   4.407   6.330 -0.2137 -0.2318 -0.4150
14189SOL    HW144008   6.280   4.486   6.362 -0.6317 -0.5799 -0.1212
14189SOL    HW244009   6.413   4.436   6.310 -0.3607  0.3131 -0.2974
14190SOL     OW44010   7.005   0.138   1.173  0.8135 -0.4504 -0.2638
14190SOL    HW144011   7.049   0.109   1.093  0.6667  1.2864 -1.0241
14190SOL    HW244012   7.018   0.233   1.174 -1.5858 -0.0651  0.2729
14191SOL     OW44013   4.865   6.362   6.026 -0.1620 -0.1128  0.0868
14191SOL    HW144014   4.788   6.392   6.074  1.4031  2.0386  1.4361
14191SOL    HW244015   4.869   6.420   5.949  0.9862  0.9787  0.9208
14192SOL     OW44016   3.010   7.752   6.412  0.0990 -0.0343  0.0790
14192SOL    HW144017   2.982   7.673   6.365 -0.6568  0.4398 -0.2872
14192SOL    HW244018   3.031   7.815   6.343 -0.8886  0.6215  0.3595
14193SOL     OW44019   4.723   5.577   6.356 -0.1128 -0.3835 -0.1555
14193SOL    HW144020   4.699   5.594   6.265 -0.8647 -0.9250 -0.0627
14193SOL    HW244021   4.663   5.509   6.385 -3.1324  2.8712  2.1797
14194SOL     OW44022   7.883   3.223   5.367  0.0974  0.3941 -0.2462
14194SOL    HW144023   7.920   3.240   5.280 -0.4184  0.0851 -0.5292
14194SOL    HW244024   7.946   3.164   5.409  0.5097  0.8027 -0.2855
14195SOL     OW44025   1.964   2.478   7.612 -0.0620 -0.6841 -0.5414
14195SOL    HW144026   1.888   2.531   7.637 -0.6894 -0.9605 -1.7892
14195SOL    HW244027   1.954   2.465   7.517  1.5311 -0.7496 -0.7197
14196SOL     OW44028   7.904   5.745   7.515  0.1965  0.0939  0.3391
14196SOL    HW144029   7.945   5.816   7.564  1.6069 -0.6367  0.2693
14196SOL    HW244030   7.811   5.764   7.518  0.5974  2.4990 -0.5321
14197SOL     OW44031   6.750   2.992   2.815 -0.2053 -0.6837 -0.0329
14197SOL    HW144032   6.696   2.951   2.748 -1.1568  4.0594 -2.6116
14197SOL    HW244033   6.834   3.009   2.771 -0.5248  1.6873  0.1180
14198SOL     OW44034   5.602   5.050   3.906  0.1841  0.1151  0.7006
14198SOL    HW144035   5.690   5.086   3.894  0.9499 -1.8423  0.0730
14198SOL    HW244036   5.580   5.013   3.820 -0.6758 -0.6075  1.2255
14199SOL     OW44037   2.558   2.026   8.538  0.5650  0.4620  0.0221
14199SOL    HW144038   2.541   1.995   8.448 -2.0139  1.4893  0.0736
14199SOL    HW244039   2.516   1.960   8.593  1.5811  0.1802  0.4778
14200SOL     OW44040   6.019   3.292   6.716 -0.1515  0.2006 -0.0739
14200SOL    HW144041   5.976   3.273   6.800  1.3198  0.9518  0.9087
14200SOL    HW244042   6.086   3.357   6.738  1.6262 -1.0585 -1.4540
14201SOL     OW44043   5.116   5.956   4.195  0.4765  0.2935  0.2998
14201SOL    HW144044   5.178   5.909   4.139  0.4457 -0.1161  0.6063
14201SOL    HW244045   5.161   5.965   4.279 -0.1349 -0.6032  0.7330
14202SOL     OW44046   2.628   3.610   1.210  0.3519 -0.4551 -0.1898
14202SOL    HW144047   2.558   3.644   1.154  0.3823 -0.4216 -0.2073
14202SOL    HW244048   2.643   3.520   1.178  0.9362 -0.1566 -0.7784
14203SOL     OW44049   6.764   4.463   5.213 -0.2383 -0.5197 -0.3125
14203SOL    HW144050   6.783   4.539   5.268 -0.4878 -0.6447 -0.0480
14203SOL    HW244051   6.812   4.479   5.132  1.4199 -1.0601  0.5128
14204SOL     OW44052   1.462   2.231   8.882 -0.5303  0.4592  0.2303
14204SOL    HW144053   1.481   2.216   8.790 -1.4597  0.1717  0.0722
14204SOL    HW244054   1.458   2.144   8.921  0.0719  0.5862  0.5990
14205SOL     OW44055   4.566   7.830   8.529  0.2491  0.1374  0.0489
14205SOL    HW144056   4.475   7.818   8.501 -0.1041  0.1569  1.1242
14205SOL    HW244057   4.563   7.905   8.588  1.0433  0.3872 -0.2161
14206SOL     OW44058   2.262   5.920   9.751 -0.6670 -0.4215  0.2383
14206SOL    HW144059   2.272   5.826   9.767  0.6585 -0.6210 -1.4275
14206SOL    HW244060   2.261   5.928   9.655  0.1220  1.3241  0.3267
14207SOL     OW44061   6.289   4.631   7.715  0.2358 -0.4959  0.4271
14207SOL    HW144062   6.358   4.634   7.648  2.1088 -1.2350  2.2495
14207SOL    HW244063   6.330   4.666   7.794 -1.3902 -1.2279  1.6617
14208SOL     OW44064   5.831   5.006   1.710  0.0659 -0.2218 -0.2964
14208SOL    HW144065   5.798   4.917   1.716  2.1453 -1.0132  0.3959
14208SOL    HW244066   5.757   5.058   1.680 -2.0317 -1.6718  2.0428
14209SOL     OW44067   5.935   0.512   0.002 -0.1671  0.0006  0.2642
14209SOL    HW144068   5.984   0.594  -0.011  1.0900 -0.7205  0.2553
14209SOL    HW244069   5.938   0.469  -0.083  1.0596 -1.0186  0.7829
14210SOL     OW44070   5.493   6.133   2.793 -0.1495 -0.2119 -0.0148
14210SOL    HW144071   5.468   6.041   2.786  0.7512 -0.4294 -0.4978
14210SOL    HW244072   5.587   6.134   2.777 -0.5095  1.0665 -2.4495
14211SOL     OW44073   5.925   5.383   1.263  0.2394 -0.1215  0.2211
14211SOL    HW144074   5.998   5.372   1.202 -0.7666 -1.3456 -0.8334
14211SOL    HW244075   5.937   5.313   1.327  1.0657  0.9104  1.2285
14212SOL     OW44076   6.809   0.970   2.227 -0.4118 -0.1824  0.1084
14212SOL    HW144077   6.896   0.959   2.267 -0.0642  0.4432 -0.4688
14212SOL    HW244078   6.786   0.882   2.196 -0.4827 -0.5844  1.2548
14213SOL     OW44079   1.812   5.717   9.995 -0.2173  0.6085  0.5567
14213SOL    HW144080   1.770   5.641  10.035  1.3531 -0.7010 -0.1851
14213SOL    HW244081   1.763   5.732   9.914 -0.3971  0.2638  0.6034
14214SOL     OW44082   6.357   6.529   2.613  0.0419 -0.2472 -0.1997
14214SOL    HW144083   6.285   6.527   2.676 -1.1223 -0.7420 -1.5054
14214SOL    HW244084   6.352   6.617   2.575 -0.2321 -0.4735 -0.6905
14215SOL     OW44085   4.571   0.781   6.303 -0.1310 -0.2687  0.1223
14215SOL    HW144086   4.589   0.848   6.368 -0.0380  0.2428 -0.4222
14215SOL    HW244087   4.483   0.802   6.271 -1.1402 -1.8466  1.6725
14216SOL     OW44088   0.428   4.358   3.884  0.3413  0.8496 -0.3913
14216SOL    HW144089   0.344   4.402   3.898 -0.1155 -0.9912  4.3002
14216SOL    HW244090   0.405   4.279   3.834 -0.9395  0.0747  1.3299
14217SOL     OW44091   5.352   1.753   0.335  0.5348  0.1610  0.2497
14217SOL    HW144092   5.410   1.792   0.400 -1.5004  1.2562  1.5338
14217SOL    HW244093   5.334   1.665   0.369  1.3030 -0.1298 -0.0794
14218SOL     OW44094   3.058   6.238   0.154 -0.1485 -0.2639  0.0006
14218SOL    HW144095   3.005   6.289   0.093  0.6743  1.4144  0.6022
14218SOL    HW244096   3.008   6.238   0.235  0.0563  0.0030  0.1303
14219SOL     OW44097   1.962   5.072   6.764 -0.1244 -0.8832  0.0552
14219SOL    HW144098   2.035   5.091   6.705 -0.4876  1.4280  0.2563
14219SOL    HW244099   1.987   5.111   6.847 -1.0480 -1.1820  0.4918
14220SOL     OW44100   2.273   2.903  10.054 -0.0414  0.4212  0.0350
14220SOL    HW144101   2.306   2.813  10.058  0.4233  0.5867  0.0169
14220SOL    HW244102   2.178   2.894  10.059  0.0072  0.1336  4.6590
14221SOL     OW44103   6.664   0.342   8.184  0.0944 -0.3379  0.1848
14221SOL    HW144104   6.591   0.296   8.142 -0.4536 -1.7189  2.4564
14221SOL    HW244105   6.628   0.428   8.206 -0.2163 -0.3044 -0.4176
14222SOL     OW44106   5.661   4.476   4.625  0.3483 -0.1003 -0.1826
14222SOL    HW144107   5.670   4.384   4.647 -0.3913 -0.3974 -1.0630
14222SOL    HW244108   5.567   4.494   4.637  0.8565  1.3091  2.8238
14223SOL     OW44109   5.089   1.924   5.594  0.3435  0.2373  0.1815
14223SOL    HW144110   5.068   1.980   5.519 -0.0319  1.1322  0.9386
14223SOL    HW244111   5.009   1.874   5.609  0.1517  0.6297  0.4731
14224SOL     OW44112   2.020   5.797   9.411 -0.3819  0.3637  0.6212
14224SOL    HW144113   1.999   5.801   9.504  1.6295  1.6200  1.0885
14224SOL    HW244114   1.962   5.863   9.371 -1.2256 -0.1519  0.9640
14225SOL     OW44115   4.708   6.544   3.748 -0.0623  0.0818  0.1738
14225SOL    HW144116   4.708   6.568   3.656 -1.0347 -1.6491 -0.3278
14225SOL    HW244117   4.705   6.628   3.795  2.6858  1.0959 -1.2542
14226SOL     OW44118   2.832   3.187  11.092  0.0385  0.0672 -0.1418
14226SOL    HW144119   2.880   3.148  11.165  0.0371 -2.8322 -1.5717
14226SOL    HW244120   2.740   3.165  11.109 -0.2602  1.4308  0.1308
14227SOL     OW44121   5.065   5.015   3.501  0.1407  0.0259  0.2936
14227SOL    HW144122   5.029   4.930   3.477 -0.1239  0.0808  0.4912
14227SOL    HW244123   5.097   5.003   3.591  1.1687 -0.1936 -0.0877
14228SOL     OW44124   6.000   5.570   9.646 -0.0641 -0.3370  0.0312
14228SOL    HW144125   5.927   5.592   9.588  1.3547 -0.4898 -1.9049
14228SOL    HW244126   6.046   5.653   9.659 -0.0458 -0.4156  0.4882
14229SOL     OW44127   6.666   4.332   8.128  0.0197  0.0299 -0.2687
14229SOL    HW144128   6.630   4.417   8.155  0.3001  0.5830 -1.5613
14229SOL    HW244129   6.617   4.309   8.050 -0.4818 -1.3355  0.4200
14230SOL     OW44130   0.366   4.261   6.234  0.1239 -0.4399 -0.2844
14230SOL    HW144131   0.326   4.247   6.320  0.5451 -2.1400 -0.3344
14230SOL    HW244132   0.292   4.262   6.173 -0.2311  1.3432  0.1133
14231SOL     OW44133   3.169   7.353   1.968 -0.4569 -0.6642  0.1999
14231SOL    HW144134   3.074   7.368   1.971 -0.3181  0.2846  0.3894
14231SOL    HW244135   3.204   7.430   1.923  0.3125 -0.4578  1.0990
14232SOL     OW44136   1.224   6.607   7.470  0.0992 -0.2513 -0.4608
14232SOL    HW144137   1.238   6.567   7.385 -0.0931 -0.1117 -0.5589
14232SOL    HW244138   1.312   6.618   7.507  0.1755 -0.3995 -0.5982
14233SOL     OW44139   7.212   6.816   3.554 -0.3741  0.0984  0.4115
14233SOL    HW144140   7.140   6.756   3.533  0.3437 -0.8425  0.5387
14233SOL    HW244141   7.250   6.780   3.634  2.0371 -1.1821 -1.1847
14234SOL     OW44142   5.356   3.342   5.582  0.1748 -0.5209  0.0872
14234SOL    HW144143   5.360   3.297   5.497 -1.4025 -0.8197  0.1316
14234SOL    HW244144   5.447   3.344   5.612  0.7873 -0.3125 -1.6481
14235SOL     OW44145   5.555   2.801   5.597  0.4363  0.9573  0.0597
14235SOL    HW144146   5.474   2.761   5.569  0.5424  0.5699  0.2911
14235SOL    HW244147   5.534   2.843   5.681  0.5336  0.6412  0.2442
14236SOL     OW44148   7.257   3.250   6.537  0.3956 -0.2648 -0.6507
14236SOL    HW144149   7.281   3.169   6.492 -0.7331 -0.5700 -0.7445
14236SOL    HW244150   7.174   3.229   6.580  1.5310 -0.0636  1.8279
14237SOL     OW44151   5.024   4.271  12.246 -0.1035  0.5719 -0.6738
14237SOL    HW144152   4.997   4.182  12.270  1.7408  0.2520  0.4202
14237SOL    HW244153   5.043   4.313  12.330 -0.3645  1.8156 -1.2262
14238SOL     OW44154   0.990   0.667   8.249 -0.4976  0.0228 -0.0537
14238SOL    HW144155   0.983   0.706   8.336 -1.6496  1.8880 -0.9235
14238SOL    HW244156   1.032   0.734   8.195  1.2181 -1.5072 -0.7533
14239SOL     OW44157   6.946   1.556   0.328  0.3599  0.6457 -0.8222
14239SOL    HW144158   6.903   1.632   0.367 -2.2694 -0.8336 -0.5877
14239SOL    HW244159   6.993   1.515   0.400  0.2821  1.0642 -0.5271
14240SOL     OW44160   6.760   5.245   3.797 -0.2756 -0.4502 -0.0897
14240SOL    HW144161   6.750   5.242   3.892  0.4741  0.0368  0.0125
14240SOL    HW244162   6.670   5.237   3.763 -0.5359 -0.7535  0.6480
14241SOL     OW44163   0.857   6.991   9.017  0.0121 -0.0410  0.0589
14241SOL    HW144164   0.841   7.080   8.984  0.5864  0.0128 -0.0720
14241SOL    HW244165   0.772   6.964   9.053 -1.1367 -0.6878 -2.8156
14242SOL     OW44166   2.910   5.888   3.772 -0.2963 -0.3160  0.2968
14242SOL    HW144167   2.901   5.898   3.867 -2.0838  0.7013  0.0716
14242SOL    HW244168   2.827   5.850   3.744 -0.3288  0.6488 -1.0122
14243SOL     OW44169   0.487   1.076   3.253  0.0325 -0.1518  0.4111
14243SOL    HW144170   0.534   1.027   3.321  0.0714 -0.2748  0.2963
14243SOL    HW244171   0.536   1.158   3.244  0.6365 -0.5621 -0.1909
14244SOL     OW44172   6.011   5.727   5.129  0.4466  0.2871  0.1750
14244SOL    HW144173   6.064   5.761   5.201  0.1574 -0.5342  0.7965
14244SOL    HW244174   5.976   5.644   5.162  0.0816  0.0291 -0.8121
14245SOL     OW44175   4.549   2.057   5.547  0.6571  0.0356  0.0730
14245SOL    HW144176   4.573   2.145   5.518 -1.1325  1.0646  1.5255
14245SOL    HW244177   4.459   2.045   5.517  0.3387 -0.6800  1.2620
14246SOL     OW44178   6.270   6.942   7.008  0.3086  0.5918  0.7362
14246SOL    HW144179   6.348   6.896   6.976 -0.6212 -0.4701 -0.0992
14246SOL    HW244180   6.262   7.018   6.949  0.7770  0.7919  0.9198
14247SOL     OW44181   0.670   7.461   9.921  0.2196  0.4469 -0.4810
14247SOL    HW144182   0.719   7.534   9.959 -2.4495  2.2785 -0.3348
14247SOL    HW244183   0.638   7.495   9.837 -0.9082 -0.6101 -0.5113
14248SOL     OW44184   3.783   0.747  11.514  0.3616  0.4108 -0.2546
14248SOL    HW144185   3.811   0.682  11.579  0.5115 -1.0175 -1.6834
14248SOL    HW244186   3.699   0.714  11.482  1.0228  0.2471 -1.8795
14249SOL     OW44187   7.188   7.071  10.513 -0.0741  0.0496  0.0493
14249SOL    HW144188   7.191   7.165  10.528  2.0793 -0.0189  0.3579
14249SOL    HW244189   7.131   7.060  10.438 -0.5049  1.5835  0.1327
14250SOL     OW44190   3.534   1.125   3.375  0.1693 -0.5921  0.1007
14250SOL    HW144191   3.502   1.060   3.312  0.9156 -0.3337 -0.5677
14250SOL    HW244192   3.482   1.204   3.356 -0.8252 -1.0002  0.9967
14251SOL     OW44193   1.458   4.083   2.697  0.5606 -0.6828 -0.2811
14251SOL    HW144194   1.467   4.113   2.607  2.1020 -2.1615 -0.6856
14251SOL    HW244195   1.525   4.130   2.746 -1.1300  1.1065  0.4332
14252SOL     OW44196   3.297   4.280   6.614 -0.1360  0.0512 -0.2678
14252SOL    HW144197   3.202   4.282   6.632 -0.0617  1.2420  0.0724
14252SOL    HW244198   3.304   4.297   6.520 -0.2795 -0.7376 -0.4302
14253SOL     OW44199   0.273   3.601   1.540  0.3743 -0.1267 -0.0461
14253SOL    HW144200   0.364   3.608   1.509  0.2863  1.8046  0.0194
14253SOL    HW244201   0.262   3.675   1.599 -1.1581 -0.5455  0.2410
14254SOL     OW44202   6.299   2.249   5.332 -0.5224  0.0233 -0.0546
14254SOL    HW144203   6.359   2.214   5.267  0.3727 -0.2003  0.8725
14254SOL    HW244204   6.355   2.290   5.398 -1.4678  1.4283 -0.0924
14255SOL     OW44205   3.249   1.933   2.200  0.2689  0.1532 -0.5540
14255SOL    HW144206   3.244   2.026   2.220 -2.1549 -0.1562  0.6701
14255SOL    HW244207   3.225   1.890   2.282 -1.2671 -1.4639 -1.7773
14256SOL     OW44208   7.135   2.792  12.066 -0.2540 -0.0671  0.3283
14256SOL    HW144209   7.114   2.885  12.059 -0.1959 -0.1397 -1.3198
14256SOL    HW244210   7.110   2.756  11.981  0.5360 -1.3813  0.6283
14257SOL     OW44211   6.392   4.365   0.082 -0.9686 -0.4188 -0.0013
14257SOL    HW144212   6.367   4.353  -0.010 -0.4104  2.4206 -0.5974
14257SOL    HW244213   6.456   4.435   0.081  0.2807 -1.4065  2.4455
14258SOL     OW44214   1.050   4.581   6.059  0.1535 -0.5309  0.2182
14258SOL    HW144215   1.012   4.530   6.130 -1.1619  1.1453  0.7812
14258SOL    HW244216   1.047   4.523   5.983  1.1445 -2.1885  1.3718
14259SOL     OW44217   3.968   4.501   1.571 -0.2196 -0.1731  0.5894
14259SOL    HW144218   3.997   4.437   1.507  0.9677 -0.0575  0.9897
14259SOL    HW244219   4.015   4.479   1.651  0.4133  1.3283  0.6676
14260SOL     OW44220   2.094   4.389  12.160 -0.0370  0.1801 -0.1567
14260SOL    HW144221   2.055   4.306  12.131 -0.1053  0.7339 -1.7700
14260SOL    HW244222   2.091   4.445  12.082 -0.6000  1.9405  1.0836
14261SOL     OW44223   4.301   7.800   6.381 -0.2304  0.1059  0.3484
14261SOL    HW144224   4.337   7.713   6.364 -2.2437 -0.7868  0.3452
14261SOL    HW244225   4.256   7.790   6.465 -0.3628  1.1883  0.4111
14262SOL     OW44226   1.581   5.205   6.302  0.1538 -0.1150 -0.0474
14262SOL    HW144227   1.552   5.200   6.392 -0.9548 -1.6629 -0.4442
14262SOL    HW244228   1.501   5.196   6.250  0.9574 -1.2680 -1.1665
14263SOL     OW44229   3.787   2.225  12.096  0.4148  0.0009 -0.0028
14263SOL    HW144230   3.758   2.153  12.152 -1.4339  0.9312  0.3167
14263SOL    HW244231   3.715   2.287  12.098  0.5990  0.4306 -2.8580
14264SOL     OW44232   4.016   4.630   0.098  0.2260 -0.2927  0.4735
14264SOL    HW144233   4.098   4.646   0.050 -0.5576 -0.5296 -0.9987
14264SOL    HW244234   3.977   4.554   0.055 -1.9090  1.2214 -0.4517
14265SOL     OW44235   3.220   4.511   2.542 -0.3009 -0.3832 -0.4106
14265SOL    HW144236   3.307   4.477   2.563  0.4780  1.4069 -0.5534
14265SOL    HW244237   3.180   4.528   2.627 -0.5645 -1.2860 -0.3429
14266SOL     OW44238   7.007   0.389   0.124  0.5523  0.2846  0.1164
14266SOL    HW144239   6.967   0.439   0.053  0.9409 -0.0372 -0.3337
14266SOL    HW244240   6.962   0.305   0.123  0.7482  0.1787  0.0673
14267SOL     OW44241   2.858   1.510   4.200 -0.3814 -0.4087  0.2359
14267SOL    HW144242   2.844   1.437   4.260 -0.9987 -0.5113 -0.0237
14267SOL    HW244243   2.824   1.478   4.116  4.5055 -2.0728 -1.4442
14268SOL     OW44244   6.720   5.334   6.920  0.2825  0.0777 -0.1682
14268SOL    HW144245   6.803   5.362   6.880  0.2622  0.1775 -0.1394
14268SOL    HW244246   6.664   5.411   6.916  0.0871 -0.0815 -0.4633
14269SOL     OW44247   2.154   2.869   9.039  0.1011 -0.0293 -0.1276
14269SOL    HW144248   2.136   2.829   8.954 -0.4146  1.6353 -0.8352
14269SOL    HW244249   2.096   2.945   9.043 -0.1249 -0.2534  1.8743
14270SOL     OW44250   5.223   6.523  12.262  0.1783  0.0418 -0.0671
14270SOL    HW144251   5.225   6.613  12.294 -0.3143 -0.1112  0.4135
14270SOL    HW244252   5.149   6.483  12.307  1.2070 -0.9823  0.7974
14271SOL     OW44253   7.878   5.676  11.128  0.5247  0.4851 -0.0491
14271SOL    HW144254   7.841   5.589  11.119 -0.2984  0.7864  0.3460
14271SOL    HW244255   7.841   5.726  11.054 -1.4275  1.3065  1.3981
14272SOL     OW44256   2.530   6.958   4.343  0.2472 -0.3283  0.1400
14272SOL    HW144257   2.614   6.946   4.388 -0.8284 -2.2587  1.7974
14272SOL    HW244258   2.472   6.894   4.384 -1.9692  0.7336 -1.1861
14273SOL     OW44259   3.097   7.176   2.735 -0.3493 -0.1011  0.3309
14273SOL    HW144260   3.119   7.243   2.670 -1.3472 -0.5072 -0.4473
14273SOL    HW244261   3.020   7.211   2.781  0.2807  0.1334  1.2359
14274SOL     OW44262   4.262   5.298  11.698 -0.1341 -0.1416  0.2784
14274SOL    HW144263   4.273   5.290  11.603 -1.2014 -0.5436  0.1807
14274SOL    HW244264   4.342   5.341  11.727 -1.1942  3.1099 -1.2067
14275SOL     OW44265   4.012   2.541   6.456  0.0370 -0.0835  0.2081
14275SOL    HW144266   4.036   2.591   6.534 -0.4078  3.0101 -1.5033
14275SOL    HW244267   4.088   2.487   6.438  1.0738  0.8943  1.4755
14276SOL     OW44268   3.632   5.425   8.643 -0.3466  0.0598 -0.3090
14276SOL    HW144269   3.632   5.395   8.734 -0.1816 -0.7409 -0.5622
14276SOL    HW244270   3.588   5.355   8.595 -1.0628  0.7961 -0.7497
14277SOL     OW44271   5.288   5.685   4.660  0.2167  0.2171 -0.1115
14277SOL    HW144272   5.271   5.772   4.625  0.5116 -0.0205 -0.8571
14277SOL    HW244273   5.382   5.672   4.649  0.2662  0.0185  0.4954
14278SOL     OW44274   3.673   3.128   8.952 -0.2463 -0.2976 -0.9154
14278SOL    HW144275   3.743   3.118   8.888  0.5055 -1.4752  0.0510
14278SOL    HW244276   3.682   3.053   9.010  0.8038  1.9992  2.2047
14279SOL     OW44277   7.539   1.756   5.817  0.2434  0.1329 -0.1170
14279SOL    HW144278   7.549   1.672   5.862  1.0079  0.1489 -0.2578
14279SOL    HW244279   7.502   1.733   5.732  1.1431 -0.1363 -0.4418
14280SOL     OW44280   3.876   3.518   2.153  0.0161 -0.1543  0.3082
14280SOL    HW144281   3.857   3.610   2.172  1.4877  0.2359 -0.0000
14280SOL    HW244282   3.841   3.505   2.064  0.6335  0.3817 -0.0217
14281SOL     OW44283   1.552   2.196   8.602  0.3095 -0.2101  0.0373
14281SOL    HW144284   1.591   2.282   8.587  0.7955 -0.4798 -0.2792
14281SOL    HW244285   1.609   2.135   8.554  0.4498 -0.8091  0.9395
14282SOL     OW44286   3.030   6.524   4.994  0.3291 -0.1750  0.0011
14282SOL    HW144287   2.939   6.532   4.964  0.8169 -0.1092 -1.5686
14282SOL    HW244288   3.075   6.483   4.920  1.9029  1.2733  0.1018
14283SOL     OW44289   6.004   1.759   6.258  0.0016  0.4491 -0.1122
14283SOL    HW144290   5.972   1.705   6.331 -1.3387  0.1258 -0.8941
14283SOL    HW244291   6.098   1.744   6.256 -0.0690 -0.2494  0.9793
14284SOL     OW44292   3.466   4.642  10.459  0.0389  0.4053 -0.4472
14284SOL    HW144293   3.502   4.606  10.541 -1.7648 -1.3573 -0.3481
14284SOL    HW244294   3.532   4.622  10.393  1.5023  1.8053  0.5136
14285SOL     OW44295   4.847   4.858  10.651  0.5936 -0.5726  0.0377
14285SOL    HW144296   4.931   4.876  10.609 -1.1621  2.7086 -2.6564
14285SOL    HW244297   4.783   4.873  10.581 -2.3125 -1.8509  2.2372
14286SOL     OW44298   6.818   6.379  10.164  0.4786 -0.4161 -0.0963
14286SOL    HW144299   6.798   6.382  10.258  1.9927 -2.0725  0.3255
14286SOL    HW244300   6.905   6.417  10.157  0.2013  0.0893 -0.9176
14287SOL     OW44301   1.321   1.223   4.226 -0.2177 -0.6541  0.3949
14287SOL    HW144302   1.283   1.143   4.262  0.1043 -0.0426  2.1941
14287SOL    HW244303   1.304   1.290   4.292 -1.4723  1.0897 -1.5240
14288SOL     OW44304   2.139   0.180   2.431 -0.5426 -0.5830 -0.3133
14288SOL    HW144305   2.120   0.203   2.522 -0.1767  0.4801 -0.4885
14288SOL    HW244306   2.225   0.139   2.434 -0.4050 -0.2934 -0.1996
14289SOL     OW44307   2.754   6.424  11.178 -0.1265 -0.0622  0.4863
14289SOL    HW144308   2.778   6.361  11.110  0.5259  0.7831 -0.0866
14289SOL    HW244309   2.665   6.400  11.202 -1.3227  1.0571 -2.3645
14290SOL     OW44310   6.076   5.873  11.893 -0.0532 -0.1096  0.3948
14290SOL    HW144311   6.107   5.890  11.805 -0.0381 -1.1289  0.1857
14290SOL    HW244312   5.981   5.885  11.888 -0.1521 -0.9818  0.0248
14291SOL     OW44313   7.623   5.116   3.724  0.1918  0.1186 -0.5567
14291SOL    HW144314   7.635   5.205   3.759  0.5736 -0.7885  1.8478
14291SOL    HW244315   7.543   5.121   3.673  0.2311  1.8595 -0.5235
14292SOL     OW44316   7.422   3.525   8.804  0.0246 -0.3447  0.2144
14292SOL    HW144317   7.494   3.569   8.759 -0.6534  1.1559  0.5131
14292SOL    HW244318   7.345   3.579   8.785 -0.7202 -0.9909  1.2376
14293SOL     OW44319   7.260   6.322  10.781 -0.0457  0.0017  0.2192
14293SOL    HW144320   7.180   6.273  10.802  0.1541 -0.5922 -0.3765
14293SOL    HW244321   7.330   6.257  10.788  0.4321  0.5779  1.0009
14294SOL     OW44322   0.933   2.396   5.709 -0.4172  0.1398  0.9243
14294SOL    HW144323   0.968   2.359   5.628 -0.2738  1.0384  0.5634
14294SOL    HW244324   0.852   2.347   5.724 -0.7009  0.2947 -0.0363
14295SOL     OW44325   1.408   0.119   6.709  0.0186  0.0408  0.0425
14295SOL    HW144326   1.324   0.154   6.679  0.1731 -0.9854 -1.7299
14295SOL    HW244327   1.389   0.077   6.793 -1.0309  0.6473  0.1165
14296SOL     OW44328   2.821   6.961   5.141  0.0590 -0.2180 -0.1399
14296SOL    HW144329   2.772   7.044   5.140 -1.0998 -0.8663  0.4225
14296SOL    HW244330   2.763   6.899   5.097  0.7124 -0.8483 -0.1295
14297SOL     OW44331   3.815   7.390   3.381 -0.2641 -0.0832  0.4327
14297SOL    HW144332   3.729   7.403   3.420 -0.2627  1.3311  0.0168
14297SOL    HW244333   3.797   7.349   3.296 -0.5682  0.5278  0.1954
14298SOL     OW44334   1.975   4.842   4.516  0.2055 -0.0954 -0.6731
14298SOL    HW144335   1.999   4.856   4.608  0.9681  0.7965 -0.9935
14298SOL    HW244336   2.034   4.900   4.467 -1.6265  1.0844 -1.5910
14299SOL     OW44337   3.515   2.285   5.938 -0.1391 -0.1841 -0.2921
14299SOL    HW144338   3.502   2.294   5.844  0.9282 -0.3248 -0.4608
14299SOL    HW244339   3.610   2.291   5.951 -0.3866  2.1924  1.0357
14300SOL     OW44340   5.732   2.562   5.652  0.3572  0.4326 -0.5557
14300SOL    HW144341   5.734   2.644   5.701  0.7550  0.6690 -0.9660
14300SOL    HW244342   5.676   2.579   5.577 -1.4268 -0.3450  0.5057
14301SOL     OW44343   5.133   0.224   3.153  0.0460  0.6083 -0.2925
14301SOL    HW144344   5.227   0.241   3.158  0.3763 -0.4419 -1.9698
14301SOL    HW244345   5.127   0.129   3.141 -1.2233  0.6860 -0.3830
14302SOL     OW44346   0.116   7.089   4.156  0.0988  0.1442 -0.0933
14302SOL    HW144347   0.163   7.172   4.149 -0.5675  0.4068 -1.8050
14302SOL    HW244348   0.184   7.024   4.172  0.9243  0.6923 -1.2695
14303SOL     OW44349   0.235   0.793   7.403  0.0258 -0.4482  0.2818
14303SOL    HW144350   0.254   0.738   7.327  2.3944 -0.0948  0.5168
14303SOL    HW244351   0.293   0.759   7.471 -0.3982  0.6728  1.2267
14304SOL     OW44352   1.938   5.363  11.411  0.3608  0.1058  0.1510
14304SOL    HW144353   1.844   5.351  11.418  0.6059 -1.1359  2.0306
14304SOL    HW244354   1.965   5.309  11.337 -0.3167 -0.0927  0.0510
14305SOL     OW44355   0.927   1.882   8.666  0.2355  0.5959 -0.2828
14305SOL    HW144356   1.018   1.854   8.664  0.4514  1.2666  0.0064
14305SOL    HW244357   0.931   1.976   8.683 -0.4230  1.0404 -2.2903
14306SOL     OW44358   2.969   1.394   7.549 -0.2682 -0.1370  0.2259
14306SOL    HW144359   3.004   1.308   7.527 -0.5271 -0.3249  0.5407
14306SOL    HW244360   2.885   1.398   7.503 -0.6851 -0.4234  0.9464
14307SOL     OW44361   6.426   0.383   4.510  0.0275 -0.4006  0.4018
14307SOL    HW144362   6.508   0.431   4.503 -0.7186  1.0125  1.0002
14307SOL    HW244363   6.388   0.412   4.593 -2.1805  0.8002 -0.9369
14308SOL     OW44364   2.861   3.567  10.124  0.0173 -0.2483  0.1833
14308SOL    HW144365   2.801   3.596  10.193 -0.5428 -2.7507  0.8363
14308SOL    HW244366   2.918   3.503  10.167  2.4082  1.1161 -0.7367
14309SOL     OW44367   4.918   7.466  11.036  0.6043  0.6052  0.0667
14309SOL    HW144368   4.990   7.462  10.973  0.3367 -2.0325 -0.1834
14309SOL    HW244369   4.843   7.426  10.991  0.2187 -0.7346  1.7532
14310SOL     OW44370   2.832   1.201   2.643 -0.2118  0.2207 -0.4665
14310SOL    HW144371   2.864   1.222   2.555 -0.1822 -0.5021 -0.6331
14310SOL    HW244372   2.844   1.282   2.693  2.3037 -0.1217 -0.3986
14311SOL     OW44373   5.659   4.045  12.174  0.1468  0.1840 -0.5231
14311SOL    HW144374   5.622   4.006  12.253  0.4061  2.7938  1.0349
14311SOL    HW244375   5.589   4.043  12.110 -1.2618  1.0228  0.9148
14312SOL     OW44376   2.363   1.327   9.462  0.3408 -0.2806  0.5794
14312SOL    HW144377   2.267   1.338   9.461  0.2570 -0.5925  2.1854
14312SOL    HW244378   2.391   1.369   9.543  1.6405  0.1936 -0.0923
14313SOL     OW44379   4.912   2.196   5.919  0.0891 -0.5298  0.3930
14313SOL    HW144380   4.952   2.119   5.959  0.1254 -0.8114 -0.1736
14313SOL    HW244381   4.819   2.173   5.910  0.5234 -1.6315 -2.2658
14314SOL     OW44382   1.478   0.117   6.444  0.1785  0.1476  0.4530
14314SOL    HW144383   1.463   0.122   6.538 -1.1050  0.5733  0.2501
14314SOL    HW244384   1.392   0.096   6.407  0.1444  2.1343 -0.7839
14315SOL     OW44385   1.901   1.733   8.046 -0.1242  0.6060 -0.1454
14315SOL    HW144386   1.984   1.689   8.028 -1.0161 -1.4724  0.4720
14315SOL    HW244387   1.874   1.700   8.131 -1.5810  1.2485 -0.3243
14316SOL     OW44388   2.191   1.743   8.110 -0.4290  0.2286  0.1876
14316SOL    HW144389   2.145   1.813   8.157  0.8795  2.9431 -2.2711
14316SOL    HW244390   2.264   1.719   8.168  0.9076  3.1841 -0.1286
14317SOL     OW44391   4.659   0.899  11.460  0.3133 -1.5943 -0.1749
14317SOL    HW144392   4.570   0.867  11.451  0.3932 -2.0472  0.5280
14317SOL    HW244393   4.665   0.927  11.551  0.7760 -1.2126 -0.3192
14318SOL     OW44394   4.926   0.319   8.517 -0.3517 -0.3190  0.0926
14318SOL    HW144395   4.917   0.325   8.422  0.0646  0.6191  0.0978
14318SOL    HW244396   4.996   0.255   8.531  0.0635  0.0511 -0.2638
14319SOL     OW44397   5.068   7.670   1.770  0.1282  0.0047  0.5157
14319SOL    HW144398   5.102   7.690   1.683  0.1386 -1.3146  0.1848
14319SOL    HW244399   4.973   7.675   1.760  0.0716 -1.4014  0.0562
14320SOL     OW44400   0.722   0.154  10.189  0.3833 -0.3170 -0.3586
14320SOL    HW144401   0.743   0.247  10.184  0.2409 -0.2805 -0.2699
14320SOL    HW244402   0.634   0.151  10.225  0.5845 -0.5051  0.1196
14321SOL     OW44403   2.451   0.942  12.234  0.5495  0.8687 -0.2093
14321SOL    HW144404   2.458   0.886  12.312 -2.2984 -0.1760 -0.5646
14321SOL    HW244405   2.389   1.011  12.259  1.7451  2.1711 -0.7244
14322SOL     OW44406   4.608   1.475  10.624 -0.3467  0.0337 -0.2131
14322SOL    HW144407   4.600   1.387  10.588  2.4671 -0.3047 -0.2720
14322SOL    HW244408   4.651   1.463  10.709 -1.8284  1.2432  0.7619
14323SOL     OW44409   0.027   0.080   2.364 -0.2046 -0.2144  0.1325
14323SOL    HW144410   0.111   0.085   2.408 -0.5633 -0.8960  0.9141
14323SOL    HW244411   0.025  -0.007   2.325 -0.7278 -0.3820  0.5145
14324SOL     OW44412   4.120   2.066   8.724  0.3666 -0.4477 -0.2977
14324SOL    HW144413   4.120   1.994   8.787  0.3576 -0.3265 -0.1617
14324SOL    HW244414   4.046   2.121   8.748 -0.1920 -0.8816 -0.9619
14325SOL     OW44415   0.165   5.027   1.331  0.2184 -0.3598  0.0579
14325SOL    HW144416   0.245   4.975   1.322  0.6930  0.1433  1.1781
14325SOL    HW244417   0.097   4.963   1.352  0.5542 -0.6668  0.2159
14326SOL     OW44418   0.085   5.928   6.076  0.3865  0.1947 -0.8294
14326SOL    HW144419   0.054   5.949   5.988 -0.3349  1.1346 -0.3650
14326SOL    HW244420   0.125   6.009   6.107 -0.1541  0.1396  0.0369
14327SOL     OW44421   4.436   5.078   4.926  0.1916 -0.2405 -0.0576
14327SOL    HW144422   4.360   5.079   4.868  0.1444 -1.8237 -0.0698
14327SOL    HW244423   4.407   5.125   5.004 -0.2532  0.5601 -0.6910
14328SOL     OW44424   5.755   4.506   2.096  0.1902  0.3753 -0.3597
14328SOL    HW144425   5.798   4.591   2.086 -1.0440  1.1529  0.6244
14328SOL    HW244426   5.747   4.473   2.007  0.1798  1.5643 -0.8258
14329SOL     OW44427   0.565   3.141   8.640 -0.0094 -0.7081  0.1209
14329SOL    HW144428   0.536   3.205   8.575  0.0376 -0.8697 -0.0611
14329SOL    HW244429   0.515   3.062   8.619  0.9885 -1.1700 -0.5612
14330SOL     OW44430   4.261   4.309  10.406  0.5259 -0.2602 -0.1200
14330SOL    HW144431   4.288   4.371  10.473  0.6039 -1.6706  1.2002
14330SOL    HW244432   4.166   4.301  10.417  0.8078 -2.3387  1.5700
14331SOL     OW44433   1.666   4.772   7.208 -0.2586  0.0111 -0.0476
14331SOL    HW144434   1.572   4.777   7.195 -0.2134  2.7771 -0.0007
14331SOL    HW244435   1.688   4.681   7.192 -3.0064 -0.8608  0.5789
14332SOL     OW44436   4.894   2.044  12.220  0.0247 -0.7591  0.0124
14332SOL    HW144437   4.807   2.083  12.232 -0.6634 -2.2256 -0.0431
14332SOL    HW244438   4.950   2.118  12.196 -1.4620  0.0283 -1.2020
14333SOL     OW44439   1.067   0.518  11.340  0.0166  0.3577  0.0755
14333SOL    HW144440   1.036   0.597  11.296  1.9330 -0.8017 -3.9303
14333SOL    HW244441   0.993   0.457  11.336 -0.9277  1.3559  1.6725
14334SOL     OW44442   2.701   5.036   6.264  0.4006  0.2693  0.2539
14334SOL    HW144443   2.796   5.044   6.270  0.8227  0.7754 -4.1594
14334SOL    HW244444   2.686   4.984   6.185 -3.0199  0.2242  0.7785
14335SOL     OW44445   3.199   2.540  12.274  0.2021 -0.5148  0.0524
14335SOL    HW144446   3.141   2.603  12.231  0.6618 -1.3784 -1.9406
14335SOL    HW244447   3.241   2.590  12.344 -0.3266  1.0616 -0.7112
14336SOL     OW44448   5.466   0.225  11.127 -0.1571 -0.2024 -0.1769
14336SOL    HW144449   5.454   0.282  11.203  0.9006 -1.4445  0.9796
14336SOL    HW244450   5.404   0.258  11.062  0.2292  2.0680  0.5237
14337SOL     OW44451   4.941   0.046   2.016  0.5328  0.2320 -0.1041
14337SOL    HW144452   5.006   0.115   2.030 -0.2957  0.8674  0.7711
14337SOL    HW244453   4.965  -0.023   2.077  2.4512 -1.1105 -2.2509
14338SOL     OW44454   0.085   0.251  10.140 -0.3874  0.2210 -0.1121
14338SOL    HW144455   0.010   0.267  10.082 -1.4159 -0.1977  1.0519
14338SOL    HW244456   0.048   0.203  10.214  1.4308 -2.0014 -0.5240
14339SOL     OW44457   3.113   2.431   2.856  0.0653  0.0015  0.7318
14339SOL    HW144458   3.108   2.340   2.887 -2.4440 -0.7894 -1.5942
14339SOL    HW244459   3.181   2.430   2.789 -0.9480 -0.5756 -0.3233
14340SOL     OW44460   1.579   2.475   7.028  0.4356  0.3506 -0.0631
14340SOL    HW144461   1.495   2.511   7.056  0.5089 -0.0277  0.6604
14340SOL    HW244462   1.560   2.431   6.946 -0.3116 -0.6863  0.6439
14341SOL     OW44463   2.168   5.195   1.147  0.4304  0.6771 -0.4022
14341SOL    HW144464   2.248   5.165   1.191 -2.0285 -1.2235  3.3033
14341SOL    HW244465   2.126   5.254   1.211 -3.0974 -1.7455 -0.1941
14342SOL     OW44466   0.314   3.180   9.320 -0.1758  0.2336 -0.1647
14342SOL    HW144467   0.251   3.210   9.386  0.5847  3.8835 -0.9250
14342SOL    HW244468   0.261   3.127   9.260 -2.7362  3.3181 -0.8986
14343SOL     OW44469   2.524   2.688   1.060  0.1522  0.0720  0.5210
14343SOL    HW144470   2.540   2.719   0.971  1.1091  0.7118  0.8968
14343SOL    HW244471   2.608   2.655   1.090  0.5214  2.1376  2.0325
14344SOL     OW44472   0.258   5.712   4.546 -0.4525 -0.3065 -0.6087
14344SOL    HW144473   0.182   5.653   4.547 -0.8988  0.1528 -2.7825
14344SOL    HW244474   0.312   5.679   4.474 -0.1193  1.1911 -1.0697
14345SOL     OW44475   2.173   3.409   9.646  0.6791 -0.4536 -0.5739
14345SOL    HW144476   2.249   3.352   9.651  2.3883  1.4890 -2.1940
14345SOL    HW244477   2.139   3.396   9.557 -0.2107 -0.4953 -0.2372
14346SOL     OW44478   6.421   3.467   4.240 -0.1405  0.6914 -0.0589
14346SOL    HW144479   6.441   3.405   4.170 -0.5576  0.6150 -0.1126
14346SOL    HW244480   6.460   3.549   4.211 -0.9899  0.8586 -0.7600
14347SOL     OW44481   4.260   5.449   2.168 -0.0137  0.2231  0.4659
14347SOL    HW144482   4.262   5.389   2.094 -2.0867  1.0621 -0.3335
14347SOL    HW244483   4.271   5.392   2.245  1.0860 -0.7756 -0.3960
14348SOL     OW44484   2.521   4.851   9.677  0.1723 -0.3303 -0.2787
14348SOL    HW144485   2.573   4.789   9.727 -1.0668 -0.3900  0.9967
14348SOL    HW244486   2.578   4.928   9.667  0.7100 -0.5960  0.6084
14349SOL     OW44487   5.644   5.243   1.348  0.6709  0.2365  0.1789
14349SOL    HW144488   5.602   5.200   1.273  1.2216  1.1218 -0.6625
14349SOL    HW244489   5.728   5.274   1.313  0.6815  1.1769  1.0100
14350SOL     OW44490   5.709   1.688  11.324 -0.4051 -0.0820 -0.2830
14350SOL    HW144491   5.788   1.672  11.272 -0.6340 -1.1076 -0.3419
14350SOL    HW244492   5.690   1.604  11.365 -1.2092  0.2745  0.0970
14351SOL     OW44493   4.851   6.039   4.252  0.6009  0.8173 -0.9149
14351SOL    HW144494   4.854   6.054   4.346  1.2595  2.2314 -1.1323
14351SOL    HW244495   4.943   6.027   4.227  0.4515  0.6847 -1.4112
14352SOL     OW44496   2.725   0.238  10.931 -0.2187  0.0756  0.2666
14352SOL    HW144497   2.715   0.240  11.026  0.0208 -0.9237  0.3175
14352SOL    HW244498   2.699   0.326  10.902 -0.0062  0.4758  1.2769
14353SOL     OW44499   1.604   5.685   4.531 -0.4952 -0.0108 -0.0420
14353SOL    HW144500   1.582   5.693   4.438 -0.4569 -0.8751 -0.1298
14353SOL    HW244501   1.522   5.660   4.573 -0.1859 -1.0987 -0.0627
14354SOL     OW44502   1.994   0.755   0.304 -0.1264 -0.0007 -0.2409
14354SOL    HW144503   2.053   0.741   0.230 -0.3144 -0.9804 -0.2268
14354SOL    HW244504   2.017   0.841   0.338  2.3426 -0.9301  0.7011
14355SOL     OW44505   5.701   0.546   4.773 -0.4829  0.0770 -1.3719
14355SOL    HW144506   5.751   0.604   4.830 -2.1444 -0.0403  0.3136
14355SOL    HW244507   5.767   0.488   4.734  0.7219 -0.0001  0.6404
14356SOL     OW44508   7.167   1.670   0.957 -0.2315 -0.2711 -0.1986
14356SOL    HW144509   7.205   1.583   0.968 -1.7098 -1.0395 -0.7937
14356SOL    HW244510   7.213   1.726   1.019  0.5855 -1.5334  0.3520
14357SOL     OW44511   2.373   6.632  12.105  0.4938 -0.0552  0.2137
14357SOL    HW144512   2.453   6.644  12.156  0.7790 -0.2776 -0.1733
14357SOL    HW244513   2.397   6.656  12.016  0.2475 -0.5247  0.0113
14358SOL     OW44514   3.423   0.371   6.584 -0.8380  0.5450 -0.2728
14358SOL    HW144515   3.384   0.452   6.617  0.3751  1.8870 -1.9405
14358SOL    HW244516   3.427   0.383   6.489  2.7165  0.1418 -0.3143
14359SOL     OW44517   5.208   0.449   1.609 -0.1992 -0.0975  0.2864
14359SOL    HW144518   5.239   0.537   1.586 -0.7128  0.0581  0.1683
14359SOL    HW244519   5.244   0.393   1.540  0.7663 -0.1065  0.7824
14360SOL     OW44520   7.663   0.594  10.459  0.3665  0.0789  0.4140
14360SOL    HW144521   7.602   0.520  10.462  0.2796 -0.0356 -2.0327
14360SOL    HW244522   7.613   0.664  10.418  1.5814  0.2792 -0.7731
14361SOL     OW44523   1.752   2.131   9.571  0.6247  0.3844  0.1893
14361SOL    HW144524   1.784   2.147   9.482 -0.5082  2.0090  0.0374
14361SOL    HW244525   1.705   2.048   9.565  0.1190  0.7347 -0.8522
14362SOL     OW44526   7.110   7.740  10.091  0.0162 -0.3756  0.0737
14362SOL    HW144527   7.042   7.802  10.066  1.5655  1.2941 -0.2475
14362SOL    HW244528   7.066   7.655  10.092 -1.9964  0.5951 -0.3056
14363SOL     OW44529   4.495   1.640   4.716  0.2356  0.0538  0.2319
14363SOL    HW144530   4.576   1.665   4.671  0.8989 -1.2890  0.6098
14363SOL    HW244531   4.522   1.571   4.776 -0.8133  1.1525  2.0391
14364SOL     OW44532   0.955   0.115   9.306 -0.5786  0.0244  0.1915
14364SOL    HW144533   0.927   0.159   9.226  0.6236  0.3577 -0.0723
14364SOL    HW244534   0.883   0.128   9.367 -1.1034  0.5956 -0.5268
14365SOL     OW44535   5.122   7.353   3.201 -0.4876  0.3532 -0.2216
14365SOL    HW144536   5.188   7.306   3.252  0.0025  2.3048  1.0131
14365SOL    HW244537   5.064   7.392   3.265 -1.4626  0.6621 -1.2491
14366SOL     OW44538   4.964   0.969   9.912  0.1701  0.1592 -0.0606
14366SOL    HW144539   4.875   1.005   9.906  0.8173  1.7389 -0.4346
14366SOL    HW244540   4.950   0.876   9.930 -1.6564 -0.2413 -2.7981
14367SOL     OW44541   6.910   3.594   9.936  0.2231 -0.3130 -0.6382
14367SOL    HW144542   6.844   3.539   9.977  1.3246  0.5399  2.5483
14367SOL    HW244543   6.993   3.548   9.951  0.7437  0.3649 -1.3617
14368SOL     OW44544   2.444   5.768  10.109 -0.5664 -0.1255  0.1375
14368SOL    HW144545   2.465   5.856  10.077 -0.8571 -0.2411 -0.3784
14368SOL    HW244546   2.398   5.726  10.036 -0.2673 -0.7716  0.3097
14369SOL     OW44547   5.717   5.305  11.580  0.1281  0.5875  0.2938
14369SOL    HW144548   5.659   5.322  11.506 -1.3757 -1.2353  0.9744
14369SOL    HW244549   5.759   5.221  11.558  1.5814  1.2437  0.4076
14370SOL     OW44550   6.407   5.773   9.203  0.0761  0.9568 -0.1805
14370SOL    HW144551   6.392   5.713   9.130 -0.1076  2.5677 -1.5136
14370SOL    HW244552   6.401   5.718   9.281  1.0919 -0.9741 -1.3915
14371SOL     OW44553   4.024   1.515  12.362 -0.2260  0.0350 -0.5271
14371SOL    HW144554   4.008   1.606  12.386  1.7699  0.4700 -0.7132
14371SOL    HW244555   3.937   1.478  12.348 -1.0702  1.8694 -0.3230
14372SOL     OW44556   7.549   1.999   0.556 -0.3288 -0.2112 -0.0860
14372SOL    HW144557   7.534   1.925   0.498 -1.3012 -0.1530  0.0875
14372SOL    HW244558   7.643   1.993   0.578 -0.1149 -0.6400 -1.0768
14373SOL     OW44559   3.970   4.999   7.832  0.2225  0.5396 -1.1742
14373SOL    HW144560   3.907   5.034   7.894 -0.4575 -0.1321 -1.4813
14373SOL    HW244561   3.938   5.027   7.747 -0.9976 -1.7597 -1.5380
14374SOL     OW44562   7.830   3.479  11.582  0.5423 -0.0551 -0.4551
14374SOL    HW144563   7.797   3.530  11.656  2.2733  1.5546 -0.7041
14374SOL    HW244564   7.857   3.396  11.620  1.1105  0.6208  0.6891
14375SOL     OW44565   6.069   0.057   7.495  0.2469  0.2099  0.2138
14375SOL    HW144566   6.049   0.108   7.573 -1.3752 -2.3051  1.5770
14375SOL    HW244567   6.122  -0.016   7.527  1.7402  0.4353 -1.5175
14376SOL     OW44568   0.995   6.652  11.058  0.7416 -0.0023 -0.5369
14376SOL    HW144569   0.902   6.669  11.073  0.9127 -0.5877  1.4510
14376SOL    HW244570   0.996   6.591  10.984 -0.4001  0.6522 -1.1211
14377SOL     OW44571   1.552   0.340   0.009 -0.7537  0.5967 -0.0867
14377SOL    HW144572   1.551   0.249  -0.020  0.4017  0.0624  1.4137
14377SOL    HW244573   1.480   0.346   0.072 -0.6511  0.6514  0.0251
14378SOL     OW44574   7.711   1.433  11.819  0.0138 -0.4628 -0.3050
14378SOL    HW144575   7.741   1.400  11.904 -0.6007 -1.2941 -0.4024
14378SOL    HW244576   7.763   1.512  11.805  0.2672 -0.4217  0.7530
14379SOL     OW44577   4.402   3.744   1.554  0.0973 -0.2314  0.1919
14379SOL    HW144578   4.468   3.775   1.617 -1.0674  2.3190  0.2434
14379SOL    HW244579   4.322   3.736   1.605 -0.3008 -0.5858 -0.4715
14380SOL     OW44580   3.015   1.431   7.245  0.4884  0.2484 -0.0358
14380SOL    HW144581   3.024   1.454   7.153 -1.5466  0.3557 -0.2374
14380SOL    HW244582   2.928   1.462   7.270  0.6752 -0.5061  1.7091
14381SOL     OW44583   3.602   7.657   5.322  0.4728 -0.0777  0.1715
14381SOL    HW144584   3.641   7.638   5.237 -0.0337  1.1811 -0.3660
14381SOL    HW244585   3.636   7.743   5.346 -1.5260  0.8381 -0.0954
14382SOL     OW44586   2.931   1.729   1.263  0.1193 -0.7566 -0.2528
14382SOL    HW144587   2.971   1.642   1.261 -0.3154 -1.0012  1.1413
14382SOL    HW244588   3.005   1.789   1.277  0.2255 -1.0364  0.3778
14383SOL     OW44589   2.336   3.643   9.669  0.0448  0.1242 -0.4048
14383SOL    HW144590   2.268   3.576   9.657  0.2289  0.0691 -1.1998
14383SOL    HW244591   2.357   3.640   9.763 -1.1876  0.2827 -0.1073
14384SOL     OW44592   6.472   5.398   0.001  0.4111 -0.0535  0.1026
14384SOL    HW144593   6.489   5.482   0.044  0.6582  0.6386 -1.2763
14384SOL    HW244594   6.378   5.384   0.011 -0.0557  1.5311 -1.5700
14385SOL     OW44595   3.393   7.806   7.664  0.3926 -0.2135 -0.2275
14385SOL    HW144596   3.425   7.739   7.604  0.3068 -1.5734  1.1812
14385SOL    HW244597   3.473   7.847   7.699  0.4526  0.1950 -0.8303
14386SOL     OW44598   7.259   5.858   8.960  0.2077 -0.0560  0.3929
14386SOL    HW144599   7.255   5.797   8.886 -0.6714 -0.7170  0.9603
14386SOL    HW244600   7.333   5.915   8.940  1.3660 -1.6145  0.0734
14387SOL     OW44601   5.147   0.549   7.360 -0.2874  0.2224 -0.0073
14387SOL    HW144602   5.135   0.486   7.431 -0.6226  0.5123  0.1961
14387SOL    HW244603   5.079   0.528   7.297 -0.1267  0.1045 -0.1423
14388SOL     OW44604   4.048   7.548   7.949  0.0662 -0.0840 -0.1500
14388SOL    HW144605   3.964   7.551   7.995  1.2661  0.7998  2.1578
14388SOL    HW244606   4.098   7.481   7.995  1.3686  0.9323 -0.0157
14389SOL     OW44607   5.081   1.203   1.477  0.1808  0.3229  0.4132
14389SOL    HW144608   5.106   1.144   1.549 -3.0020  0.4076  1.7338
14389SOL    HW244609   5.096   1.151   1.398  0.4288 -1.1125  1.3543
14390SOL     OW44610   2.654   4.413  11.382  0.5236 -0.0681  0.3017
14390SOL    HW144611   2.643   4.359  11.303 -0.9870  1.6929 -0.7680
14390SOL    HW244612   2.607   4.365  11.450  0.4178 -0.8004 -0.2748
14391SOL     OW44613   0.801   4.650   8.309  0.0831  0.1601  0.1840
14391SOL    HW144614   0.769   4.673   8.222 -0.6154  1.5618  0.7828
14391SOL    HW244615   0.723   4.646   8.363  0.6022  0.3188  0.9596
14392SOL     OW44616   6.840   1.718   5.904  0.2361  0.1454 -0.3862
14392SOL    HW144617   6.759   1.668   5.920 -1.2347  2.8774  1.4239
14392SOL    HW244618   6.889   1.711   5.986  2.2839 -1.9613 -1.6481
14393SOL     OW44619   7.657   4.206   9.726  0.0802 -0.2858  0.8427
14393SOL    HW144620   7.751   4.187   9.717  0.5765  1.8620  0.9969
14393SOL    HW244621   7.614   4.125   9.699  1.9771 -1.4407  1.0760
14394SOL     OW44622   2.093   6.442   0.996  0.3716  0.4106  0.0717
14394SOL    HW144623   2.141   6.434   0.914  0.2662  2.9902 -0.3330
14394SOL    HW244624   2.053   6.356   1.009  1.8484 -0.5991 -1.6219
14395SOL     OW44625   3.962   0.236  11.700  0.1059  0.3907  0.2015
14395SOL    HW144626   3.914   0.285  11.767  1.3819  1.0013  0.6997
14395SOL    HW244627   4.051   0.229  11.735  0.5209 -0.2346 -0.9422
14396SOL     OW44628   3.634   4.535  10.660  0.6593 -0.2504 -0.0237
14396SOL    HW144629   3.653   4.449  10.625 -1.4102 -0.5482 -0.5143
14396SOL    HW244630   3.720   4.572  10.681  1.6788 -1.7189 -1.4351
14397SOL     OW44631   4.813   1.871  10.005 -0.4274 -0.6581  0.3035
14397SOL    HW144632   4.894   1.845   9.960 -2.4388 -4.1738 -1.7266
14397SOL    HW244633   4.766   1.924   9.941  0.0806  1.2251  1.4116
14398SOL     OW44634   0.186   3.049   3.068 -0.1261  0.4422 -0.3733
14398SOL    HW144635   0.206   3.140   3.091 -0.4100 -0.1287  2.6528
14398SOL    HW244636   0.101   3.053   3.025 -0.1764  1.6225 -0.2030
14399SOL     OW44637   2.914   1.151   6.230 -0.0421 -0.3698  0.4652
14399SOL    HW144638   2.852   1.081   6.248 -0.5887  0.2244  0.9257
14399SOL    HW244639   2.890   1.184   6.144 -1.3871  0.8922  1.2811
14400SOL     OW44640   6.201   1.221  10.813  0.2477  0.0911  0.2954
14400SOL    HW144641   6.133   1.184  10.868  1.9029 -2.5929  0.7240
14400SOL    HW244642   6.252   1.277  10.872 -0.3117  0.4245  0.4713
14401SOL     OW44643   2.607   6.477   8.806  0.5097  0.1256 -0.0983
14401SOL    HW144644   2.523   6.509   8.774  0.5407  0.1332 -0.1727
14401SOL    HW244645   2.588   6.442   8.893  0.5139  0.5221  0.0628
14402SOL     OW44646   2.587   7.207   7.719 -0.6728  0.2390 -0.6582
14402SOL    HW144647   2.683   7.204   7.715 -0.5752  1.3998  0.3096
14402SOL    HW244648   2.559   7.167   7.637  0.5811 -2.6159  0.1735
14403SOL     OW44649   6.014   2.346  10.524  0.0381 -0.1106 -0.1239
14403SOL    HW144650   5.970   2.430  10.535 -1.1856 -0.7927  0.3615
14403SOL    HW244651   6.091   2.352  10.581 -1.2150 -0.1154  1.6160
14404SOL     OW44652   1.440   4.601   1.729  0.1960 -0.0032  0.3381
14404SOL    HW144653   1.351   4.622   1.701  0.4683 -1.4876 -1.8701
14404SOL    HW244654   1.481   4.686   1.743 -0.5581  0.8353 -2.0881
14405SOL     OW44655   0.538   2.405  11.812  0.0490  0.2487  0.2029
14405SOL    HW144656   0.536   2.309  11.804 -0.2825  0.1294  1.5363
14405SOL    HW244657   0.507   2.437  11.727  0.2200 -0.8160 -0.2778
14406SOL     OW44658   7.438   0.453   0.260  0.1342 -0.3621  0.2715
14406SOL    HW144659   7.348   0.431   0.285 -0.1096  0.1174 -0.1672
14406SOL    HW244660   7.442   0.548   0.264 -0.0415 -0.2132 -1.8298
14407SOL     OW44661   1.901   6.665   6.419 -0.1099 -0.0261  0.1997
14407SOL    HW144662   1.958   6.588   6.417  1.3702  1.0351  0.2082
14407SOL    HW244663   1.899   6.691   6.511 -2.4986 -1.3731  0.5907
14408SOL     OW44664   5.951   1.434   0.270 -0.4318 -0.5489 -0.4019
14408SOL    HW144665   5.964   1.482   0.188 -0.0023  0.8390  0.4359
14408SOL    HW244666   5.902   1.494   0.326 -0.2047 -1.2254  0.5569
14409SOL     OW44667   7.295   5.937   1.934 -0.0570  0.1445 -0.1708
14409SOL    HW144668   7.236   5.999   1.891  0.1913 -0.4451 -1.3941
14409SOL    HW244669   7.307   5.867   1.871 -0.1420 -1.0560  1.1066
14410SOL     OW44670   4.675   6.964  11.909 -0.0576 -0.1905 -0.1303
14410SOL    HW144671   4.639   6.966  11.998  0.3927  0.7072  0.0469
14410SOL    HW244672   4.745   7.030  11.911  1.4499 -1.7073 -0.5154
14411SOL     OW44673   5.479   1.209   4.581 -0.4159 -0.0968 -0.4820
14411SOL    HW144674   5.535   1.269   4.531  0.5193 -0.2645  0.3293
14411SOL    HW244675   5.461   1.255   4.663 -1.5271 -0.0260 -0.7568
14412SOL     OW44676   3.882   4.916   9.093  0.1362 -0.1188 -0.8086
14412SOL    HW144677   3.843   4.833   9.068  1.3397 -0.9525 -0.0842
14412SOL    HW244678   3.857   4.927   9.185  1.5535 -0.6922 -0.3186
14413SOL     OW44679   2.610   1.923  10.065 -0.7188 -0.1087  0.4434
14413SOL    HW144680   2.595   1.996  10.125 -1.8033 -1.4577  1.9166
14413SOL    HW244681   2.703   1.930  10.041 -1.4666  3.5556 -2.0910
14414SOL     OW44682   6.041   1.358   8.798  0.2477  0.0496 -0.3763
14414SOL    HW144683   6.050   1.440   8.750  1.3760  0.0585 -0.1774
14414SOL    HW244684   6.078   1.377   8.885 -0.6165 -0.3221  0.0845
14415SOL     OW44685   6.183   1.466   9.105 -0.3739  0.1904  0.7861
14415SOL    HW144686   6.246   1.535   9.085 -0.0611  0.0343  1.2313
14415SOL    HW244687   6.231   1.404   9.160 -1.4767  1.1028  2.8992
14416SOL     OW44688   2.387   4.570   1.392 -0.0209  0.1546 -0.7766
14416SOL    HW144689   2.441   4.566   1.314  0.1640  1.3239 -0.7141
14416SOL    HW244690   2.328   4.644   1.377  0.9127  1.2688  0.7400
14417SOL     OW44691   5.677   0.610   1.347  0.6890  0.3892  0.1954
14417SOL    HW144692   5.732   0.633   1.423  0.4653  2.3207 -0.1694
14417SOL    HW244693   5.589   0.635   1.374  0.5581  0.7432 -0.5524
14418SOL     OW44694   6.002   2.376   2.615 -0.0952 -0.1350  0.4342
14418SOL    HW144695   5.925   2.395   2.562 -0.1475  0.7700  0.8116
14418SOL    HW244696   5.994   2.283   2.637 -1.9979  0.3167  1.9016
14419SOL     OW44697   3.327   7.926   0.969  0.2976 -0.1160 -0.1984
14419SOL    HW144698   3.414   7.887   0.968  1.7140  2.5649  2.3570
14419SOL    HW244699   3.328   7.992   0.900  1.0490  1.1886  1.0076
14420SOL     OW44700   5.136   1.154   5.079 -0.3325 -0.6634  0.0609
14420SOL    HW144701   5.103   1.116   5.161  0.1764 -0.5294  0.3349
14420SOL    HW244702   5.229   1.167   5.095  0.3915 -3.2034 -1.4868
14421SOL     OW44703   2.915   4.131   1.481 -0.4392  0.3300  0.5108
14421SOL    HW144704   3.005   4.153   1.506 -0.3277  2.2196 -1.3408
14421SOL    HW244705   2.924   4.075   1.404 -0.8462 -0.3153  0.9241
14422SOL     OW44706   6.691   6.753   8.225  0.1616  0.1852 -0.0742
14422SOL    HW144707   6.718   6.665   8.250  2.7480  1.5711  2.5322
14422SOL    HW244708   6.751   6.811   8.271 -2.6752  3.4307 -0.0918
14423SOL     OW44709   2.273   4.409  11.582  0.3612  0.6536 -0.5459
14423SOL    HW144710   2.218   4.337  11.550 -0.2240  0.7989  0.1257
14423SOL    HW244711   2.275   4.472  11.509 -1.2108  1.1258 -0.2144
14424SOL     OW44712   6.670   7.538   8.025  0.1222 -0.3182 -0.7135
14424SOL    HW144713   6.718   7.619   8.042 -2.2534  1.1300 -0.4603
14424SOL    HW244714   6.672   7.492   8.109 -2.8843  2.0357  0.8749
14425SOL     OW44715   3.468   5.310   4.988 -0.0621  0.1536  0.1311
14425SOL    HW144716   3.489   5.272   4.902 -0.1609  0.2464  0.0647
14425SOL    HW244717   3.384   5.355   4.974 -1.2420 -1.7338  0.8605
14426SOL     OW44718   2.805   6.542   4.297  0.0240  0.0729  0.4103
14426SOL    HW144719   2.884   6.511   4.341  0.6759  1.2280  0.0785
14426SOL    HW244720   2.816   6.516   4.206 -0.4578 -0.6525  0.5492
14427SOL     OW44721   3.029   6.708   5.565  0.1312 -0.8736  1.2134
14427SOL    HW144722   2.937   6.731   5.576 -0.2873 -1.4125 -0.8265
14427SOL    HW244723   3.031   6.648   5.490  2.3282  0.6127 -0.0434
14428SOL     OW44724   6.009   4.813   2.909 -0.4092 -0.1264 -0.0560
14428SOL    HW144725   6.004   4.822   3.004 -0.3347  0.9638 -0.1466
14428SOL    HW244726   5.931   4.857   2.876 -0.8608 -1.2048 -0.4762
14429SOL     OW44727   6.085   4.164   5.775 -0.2997 -0.4878  0.0802
14429SOL    HW144728   5.999   4.164   5.735  0.3752 -0.4371 -1.4449
14429SOL    HW244729   6.146   4.173   5.701  1.1473 -3.2691  0.8109
14430SOL     OW44730   6.969   2.563  10.395 -0.0386 -0.3745  0.1223
14430SOL    HW144731   7.029   2.604  10.457 -1.5952  0.0259  1.4224
14430SOL    HW244732   7.023   2.546  10.318  1.4190  1.2122  0.7232
14431SOL     OW44733   0.025   0.320  10.813  0.0564 -0.4940  0.0238
14431SOL    HW144734  -0.067   0.326  10.841 -0.0578 -0.6545 -0.3172
14431SOL    HW244735   0.029   0.372  10.732  0.3162 -0.3017  0.1568
14432SOL     OW44736   0.869   1.046   7.801  0.0951 -0.2206  0.2644
14432SOL    HW144737   0.964   1.049   7.813  0.0239 -1.3790  1.3332
14432SOL    HW244738   0.852   0.958   7.768 -0.6856 -0.3489  0.9776
14433SOL     OW44739   0.206   6.427  11.678 -0.4536  0.0738  0.2803
14433SOL    HW144740   0.206   6.448  11.771 -1.0015 -3.7160  1.2961
14433SOL    HW244741   0.273   6.360  11.668 -2.3553 -1.7478 -1.4141
14434SOL     OW44742   7.461   6.514   5.348  0.1642 -0.2003 -0.1541
14434SOL    HW144743   7.375   6.517   5.389  0.9825 -2.4721  1.9776
14434SOL    HW244744   7.470   6.424   5.317  1.2771  0.3601 -1.6009
14435SOL     OW44745   3.595   0.300   8.702  0.6016  0.4054  0.0445
14435SOL    HW144746   3.557   0.217   8.731  0.1705  0.8755  0.8629
14435SOL    HW244747   3.669   0.315   8.761  1.2503  0.1588 -0.6867
14436SOL     OW44748   2.641   3.882   9.218 -0.2512 -0.4280 -0.4698
14436SOL    HW144749   2.685   3.803   9.247  1.6887  1.8699  3.7932
14436SOL    HW244750   2.689   3.910   9.140  0.6672 -2.0794 -0.5227
14437SOL     OW44751   5.994   2.774   0.252  0.1155  0.5414  0.5134
14437SOL    HW144752   6.025   2.784   0.342 -1.8083  1.2190  1.1496
14437SOL    HW244753   6.059   2.718   0.210  0.5676 -0.5828  2.5905
14438SOL     OW44754   7.048   2.956   3.007 -0.2894 -0.0645 -0.0670
14438SOL    HW144755   7.104   3.019   2.962  0.1172  0.1676  0.7398
14438SOL    HW244756   7.087   2.948   3.094 -0.2125 -1.5968 -0.2201
14439SOL     OW44757   4.922   7.140   9.697  0.1960 -0.1630 -0.4156
14439SOL    HW144758   4.839   7.186   9.714 -0.1555 -0.6702 -0.7368
14439SOL    HW244759   4.959   7.126   9.784 -0.6748 -1.0564 -0.1612
14440SOL     OW44760   2.376   3.749   0.771 -0.2699 -0.1889 -0.0959
14440SOL    HW144761   2.450   3.721   0.717  1.5207  1.8836  1.1187
14440SOL    HW244762   2.333   3.817   0.719 -0.7489 -0.6926 -0.3744
14441SOL     OW44763   4.089   0.600   7.880 -0.1741  0.4575 -0.1161
14441SOL    HW144764   4.020   0.547   7.841 -0.5996  1.1696 -0.3644
14441SOL    HW244765   4.049   0.639   7.958  0.4656 -0.4292  0.6741
14442SOL     OW44766   0.064   4.846   6.828  0.0180  0.5517 -0.2303
14442SOL    HW144767   0.038   4.756   6.848  1.1340  0.4820  1.0704
14442SOL    HW244768   0.118   4.838   6.748  0.6314 -0.0369  0.2242
14443SOL     OW44769   3.094   0.897   6.960  0.0166  0.0058  0.1222
14443SOL    HW144770   3.179   0.874   6.998  0.1062  1.5833  0.9582
14443SOL    HW244771   3.100   0.990   6.942 -1.5344  0.1486  0.1989
14444SOL     OW44772   7.462   7.134  11.707  0.1747 -0.1755 -0.0104
14444SOL    HW144773   7.542   7.092  11.738 -0.7941 -3.1220 -1.1478
14444SOL    HW244774   7.392   7.094  11.758 -0.7760  0.7467 -0.5395
14445SOL     OW44775   5.851   1.132   6.005 -0.0881 -0.3378  0.4677
14445SOL    HW144776   5.898   1.149   5.923 -0.1116 -0.8350  0.3457
14445SOL    HW244777   5.771   1.088   5.977  0.7011 -2.1004  0.8660
14446SOL     OW44778   1.503   7.136   6.636  0.4076 -0.2874  0.0456
14446SOL    HW144779   1.416   7.142   6.676 -0.3220  1.5212 -1.6793
14446SOL    HW244780   1.533   7.048   6.658 -1.1268 -0.3787  2.0942
14447SOL     OW44781   5.382   7.510  11.660  0.3438  0.5973  0.0261
14447SOL    HW144782   5.351   7.482  11.574  0.2646 -1.8713  0.7559
14447SOL    HW244783   5.450   7.574  11.642 -0.4137  0.9361 -1.8271
14448SOL     OW44784   3.852   2.082   7.178 -0.4941  0.3220 -0.0973
14448SOL    HW144785   3.912   2.140   7.130  2.2840 -0.5188  2.0550
14448SOL    HW244786   3.897   2.065   7.261 -2.6462 -2.3765  0.6606
14449SOL     OW44787   3.315   5.942   9.270 -0.1362 -0.3954 -0.6384
14449SOL    HW144788   3.370   5.960   9.346 -0.6372  0.6712 -0.4980
14449SOL    HW244789   3.231   5.915   9.306  0.0085 -1.1444 -0.8403
14450SOL     OW44790   1.807   7.300   7.601 -0.4772 -0.4267 -0.0247
14450SOL    HW144791   1.863   7.373   7.627 -3.3094  1.0183  2.6694
14450SOL    HW244792   1.807   7.302   7.506  0.7439  2.1155 -0.0425
14451SOL     OW44793   5.373   5.628  12.205  0.2628 -0.1428  0.3906
14451SOL    HW144794   5.342   5.538  12.202 -1.1493  0.3529 -2.5846
14451SOL    HW244795   5.305   5.675  12.254 -0.9709 -0.0551 -1.3501
14452SOL     OW44796   4.385   7.557   1.058 -0.2776  0.1559  0.1738
14452SOL    HW144797   4.451   7.583   1.123 -0.7587  3.7154 -0.5564
14452SOL    HW244798   4.320   7.507   1.107  0.4749  0.8674  1.9559
14453SOL     OW44799   4.756   6.560   7.998  0.2268 -0.1010 -0.0139
14453SOL    HW144800   4.744   6.527   8.087 -0.6702  0.2076 -0.0147
14453SOL    HW244801   4.672   6.599   7.975 -0.4394 -2.4352 -1.9305
14454SOL     OW44802   6.986   5.681   3.580  0.1462  0.4238 -0.2848
14454SOL    HW144803   7.081   5.672   3.592 -0.0486 -0.0243  1.0242
14454SOL    HW244804   6.956   5.592   3.562 -0.1339  0.4268  0.1611
14455SOL     OW44805   0.302   6.157   0.205  0.5031  0.3531  0.4764
14455SOL    HW144806   0.366   6.104   0.251  0.7757  0.9545  0.7980
14455SOL    HW244807   0.218   6.130   0.241  0.4793 -1.0198 -0.5194
14456SOL     OW44808   5.193   6.472   0.592  0.1906 -0.1536 -0.1178
14456SOL    HW144809   5.165   6.525   0.517  0.3118  2.1262  1.3609
14456SOL    HW244810   5.288   6.472   0.587  0.1891 -0.3224 -0.1617
14457SOL     OW44811   5.931   0.435   4.663  0.1473  0.0436 -0.0997
14457SOL    HW144812   5.986   0.512   4.648 -0.5459  0.3893 -0.9455
14457SOL    HW244813   5.948   0.378   4.588  0.7947 -0.7391  0.6092
14458SOL     OW44814   6.988   5.452   4.791  0.1361 -0.0174  0.4676
14458SOL    HW144815   6.912   5.456   4.732  0.6982 -0.2652 -0.2956
14458SOL    HW244816   7.006   5.358   4.801 -0.3926 -0.0120  1.6309
14459SOL     OW44817   7.539   6.833   7.670  0.4807 -0.2830  0.0895
14459SOL    HW144818   7.447   6.808   7.680  0.9137 -2.2171 -0.5099
14459SOL    HW244819   7.584   6.789   7.742  1.0786 -0.1627 -0.2029
14460SOL     OW44820   1.523   4.387   6.113 -0.2327 -0.1279 -0.5007
14460SOL    HW144821   1.513   4.382   6.208  2.0924  1.4082 -0.0839
14460SOL    HW244822   1.448   4.437   6.083 -1.4150 -1.2889  0.3796
14461SOL     OW44823   6.451   1.639   0.626  0.4673 -0.4090 -0.1638
14461SOL    HW144824   6.410   1.724   0.608 -0.2098 -0.8460 -0.7567
14461SOL    HW244825   6.531   1.660   0.673  0.7867  0.6275 -1.1346
14462SOL     OW44826   5.888   7.348   9.325  0.1281  0.3878  0.7201
14462SOL    HW144827   5.828   7.273   9.325  0.0578  0.3297 -2.3648
14462SOL    HW244828   5.884   7.381   9.414 -2.1410 -1.4716  1.4167
14463SOL     OW44829   5.968   6.854   3.060  0.1146  0.0246 -0.1437
14463SOL    HW144830   5.987   6.845   2.967 -0.8712  0.9223 -0.4508
14463SOL    HW244831   5.964   6.765   3.093 -0.3077 -0.3309 -1.1235
14464SOL     OW44832   0.103   0.901   4.775  0.4503  0.0129  0.4198
14464SOL    HW144833   0.170   0.883   4.841  0.2541  1.7619  1.1415
14464SOL    HW244834   0.150   0.946   4.704  0.1354  0.8332  0.7237
14465SOL     OW44835   0.157   3.863   4.297 -0.4847 -0.0382  0.4123
14465SOL    HW144836   0.107   3.795   4.251 -0.5465 -0.6067  1.2949
14465SOL    HW244837   0.102   3.941   4.291 -0.5651 -0.1383 -0.3260
14466SOL     OW44838   5.720   6.316   2.561  0.2881  0.0871  0.1966
14466SOL    HW144839   5.673   6.369   2.496  1.8334 -1.2396 -2.1345
14466SOL    HW244840   5.729   6.374   2.636 -2.3924  1.3922 -0.3421
14467SOL     OW44841   4.389   3.513   0.560 -0.1392 -0.3061 -0.3532
14467SOL    HW144842   4.418   3.438   0.610  2.5689 -1.1611 -2.9033
14467SOL    HW244843   4.447   3.584   0.585  0.5613 -0.4639 -1.4465
14468SOL     OW44844   5.858   1.184  10.186  0.6768  0.1762  0.2412
14468SOL    HW144845   5.893   1.142  10.108 -0.6551 -0.8970  0.1986
14468SOL    HW244846   5.929   1.178  10.250  1.2052 -0.3622 -0.3795
14469SOL     OW44847   6.261   3.000   6.320  0.1514 -0.6016 -0.7368
14469SOL    HW144848   6.338   2.967   6.368  0.4040 -0.8095 -1.2785
14469SOL    HW244849   6.209   2.922   6.303 -0.2862 -0.4350 -0.1962
14470SOL     OW44850   1.384   4.214   6.930 -0.3809  0.0049 -0.1039
14470SOL    HW144851   1.386   4.148   7.001 -0.7924 -0.2560 -0.3313
14470SOL    HW244852   1.390   4.298   6.976  1.2600 -0.2025  0.1347
14471SOL     OW44853   5.216   1.097  10.106 -0.3219  0.4686  0.3656
14471SOL    HW144854   5.270   1.154  10.051 -2.3692  1.7605 -0.4130
14471SOL    HW244855   5.162   1.049  10.043 -0.2568 -0.6429  1.1408
14472SOL     OW44856   7.026   6.940  10.844  0.6930  0.1622 -0.0544
14472SOL    HW144857   7.118   6.942  10.870  0.3005  0.1379  1.4256
14472SOL    HW244858   7.019   6.866  10.783  1.2804 -1.1192  1.3879
14473SOL     OW44859   7.268   0.413   7.553 -0.5385  0.2359 -0.0373
14473SOL    HW144860   7.219   0.408   7.471 -1.3209 -3.4359  0.4792
14473SOL    HW244861   7.205   0.386   7.620  0.9049  0.1285  1.3326
14474SOL     OW44862   4.656   1.893   1.691  0.1355 -0.2041 -0.4367
14474SOL    HW144863   4.710   1.922   1.764 -1.1179 -0.5137  0.6518
14474SOL    HW244864   4.701   1.926   1.613  1.6289 -0.0764  0.4437
14475SOL     OW44865   3.291   7.859   6.699  0.4228 -0.3879  0.1561
14475SOL    HW144866   3.329   7.905   6.624 -1.5735  0.8378 -0.1708
14475SOL    HW244867   3.245   7.784   6.661 -4.5199  2.6601 -0.6358
14476SOL     OW44868   5.101   0.892   0.950 -0.2443 -1.0815 -0.6753
14476SOL    HW144869   5.172   0.861   1.005 -0.8683  0.5488  1.1750
14476SOL    HW244870   5.143   0.951   0.888  0.1228 -0.6668 -0.0455
14477SOL     OW44871   0.368   4.835   3.920 -0.2963 -0.0189  0.5696
14477SOL    HW144872   0.301   4.884   3.969 -0.5671  0.2651 -0.0742
14477SOL    HW244873   0.411   4.902   3.867  0.3673 -0.2355  0.8353
14478SOL     OW44874   2.025   2.240   7.118 -0.4015  0.2766 -0.3683
14478SOL    HW144875   2.085   2.314   7.112  0.0908 -0.1178 -0.4218
14478SOL    HW244876   1.942   2.278   7.147 -0.0046  0.7662  0.1395
14479SOL     OW44877   7.136   6.104   1.763  0.6260  0.2895 -0.3322
14479SOL    HW144878   7.178   6.176   1.716  0.0766  0.5959 -0.3572
14479SOL    HW244879   7.095   6.052   1.694  0.7952  0.0973 -0.2892
14480SOL     OW44880   1.660   2.669   2.577 -0.0865 -0.2044 -0.7297
14480SOL    HW144881   1.606   2.670   2.656  0.9197  2.3254  0.0322
14480SOL    HW244882   1.716   2.592   2.587 -1.6981 -1.3681 -0.2615
14481SOL     OW44883   5.749   4.555   7.934 -0.2561  0.4690 -0.5490
14481SOL    HW144884   5.740   4.467   7.972  0.8840 -0.9837 -3.3340
14481SOL    HW244885   5.669   4.600   7.961 -0.7307 -1.2791  1.2581
14482SOL     OW44886   6.480   3.028   4.448 -0.6541  0.0967 -0.3131
14482SOL    HW144887   6.481   3.121   4.423 -1.0224 -0.1857 -1.4418
14482SOL    HW244888   6.534   2.985   4.382  1.3437 -0.2350  1.4274
14483SOL     OW44889   0.558   1.271   1.134 -0.2093 -0.0042 -0.2707
14483SOL    HW144890   0.492   1.314   1.081  0.2472 -0.1122 -0.9452
14483SOL    HW244891   0.584   1.194   1.082  0.2218 -0.1266  0.1167
14484SOL     OW44892   2.797   2.030  12.292 -0.1175  0.5128 -0.5104
14484SOL    HW144893   2.885   2.003  12.319 -0.4578  0.2260  0.3476
14484SOL    HW244894   2.800   2.126  12.292 -0.0976  0.5306  0.5836
14485SOL     OW44895   3.567   7.091   2.881 -0.3783 -0.0763 -0.4731
14485SOL    HW144896   3.645   7.147   2.889 -0.4676  0.1136 -0.8828
14485SOL    HW244897   3.542   7.099   2.789  0.1116 -1.4764 -0.7512
14486SOL     OW44898   3.293   4.943   2.265  0.5193 -0.3919  0.8619
14486SOL    HW144899   3.222   5.005   2.249  1.2807  0.4519  0.6690
14486SOL    HW244900   3.299   4.893   2.183  1.0821  0.5129  0.3289
14487SOL     OW44901   2.550   7.374   0.180 -0.2068 -0.3418  0.1610
14487SOL    HW144902   2.581   7.318   0.252 -0.1246 -0.3121  0.1479
14487SOL    HW244903   2.585   7.334   0.101 -2.0040 -1.6036 -0.0716
14488SOL     OW44904   0.850   1.830   6.622  0.0609  0.4815 -0.3792
14488SOL    HW144905   0.775   1.789   6.664  0.3475 -0.5457 -0.8562
14488SOL    HW244906   0.861   1.913   6.669 -0.6363  0.1049  0.4774
14489SOL     OW44907   6.679   5.381   8.079 -0.0949  0.6895  0.1811
14489SOL    HW144908   6.698   5.397   7.987  0.9390  0.1814  0.2945
14489SOL    HW244909   6.584   5.371   8.082 -0.1138  0.4050 -0.8790
14490SOL     OW44910   0.898   0.643   4.917  0.1626 -0.2470  0.2483
14490SOL    HW144911   0.973   0.666   4.972  0.8710 -0.4525 -0.6126
14490SOL    HW244912   0.935   0.593   4.845 -0.9806 -1.5835  0.5382
14491SOL     OW44913   0.934   5.483   5.842 -0.5666  0.3110  0.3245
14491SOL    HW144914   0.886   5.540   5.902 -0.3505  1.9818 -1.0122
14491SOL    HW244915   1.026   5.506   5.855 -0.5465  1.0652 -0.9416
14492SOL     OW44916   0.114   6.558   6.233 -0.2007  0.1181  0.0911
14492SOL    HW144917   0.100   6.625   6.301 -0.2176  0.3385 -0.1292
14492SOL    HW244918   0.054   6.487   6.257 -2.6635  1.5152 -1.4690
14493SOL     OW44919   5.672   1.657  12.057  0.0931  0.5397  0.0809
14493SOL    HW144920   5.651   1.564  12.071 -2.6128  0.8360 -1.3625
14493SOL    HW244921   5.695   1.662  11.964 -2.0377  1.6137 -0.4303
14494SOL     OW44922   3.144   6.026   5.365 -0.3773  0.5732 -0.3993
14494SOL    HW144923   3.074   6.024   5.300  0.3615 -1.9339 -1.2408
14494SOL    HW244924   3.195   5.946   5.348  2.0453  1.7276  0.8757
14495SOL     OW44925   2.184   0.340   4.679  0.3287 -0.3599  0.7376
14495SOL    HW144926   2.225   0.418   4.717 -0.5869  0.3922  0.2181
14495SOL    HW244927   2.247   0.309   4.614  1.5934 -1.2530  2.3170
14496SOL     OW44928   7.209   7.209   4.891  0.1396  0.0133 -0.4551
14496SOL    HW144929   7.186   7.118   4.903 -0.1964  0.2120  0.4434
14496SOL    HW244930   7.301   7.215   4.916 -0.0033  0.0350  0.0654
14497SOL     OW44931   5.777   5.297   5.837 -0.2469 -0.3150  0.3038
14497SOL    HW144932   5.697   5.295   5.889  0.1126  0.1871  0.8813
14497SOL    HW244933   5.824   5.218   5.862 -1.0099 -1.1454 -0.7784
14498SOL     OW44934   5.837   2.474  10.098 -0.0340 -0.3134  0.2055
14498SOL    HW144935   5.821   2.496  10.006 -2.2253 -0.5013  0.5083
14498SOL    HW244936   5.870   2.384  10.096 -0.3430 -0.4180 -0.3800
14499SOL     OW44937   1.266   4.877   1.429  0.5174 -0.4776 -0.1354
14499SOL    HW144938   1.312   4.793   1.425 -0.6766 -1.1473 -0.1416
14499SOL    HW244939   1.248   4.899   1.337 -1.3336 -1.4572 -0.0416
14500SOL     OW44940   1.617   1.726   6.368  0.2620  0.0681 -0.4910
14500SOL    HW144941   1.661   1.801   6.408  1.0857 -1.4328  1.5448
14500SOL    HW244942   1.686   1.661   6.356 -0.5439 -0.6118 -1.6564
14501SOL     OW44943   3.562   4.708  10.873  0.1824  0.3738 -0.1004
14501SOL    HW144944   3.657   4.700  10.876  0.2628  1.4737  1.4509
14501SOL    HW244945   3.541   4.714  10.779  1.8139  1.8391 -0.4152
14502SOL     OW44946   1.204   2.337   6.646  0.5032  0.0961 -0.2912
14502SOL    HW144947   1.247   2.357   6.729  0.6903 -0.1741 -0.3197
14502SOL    HW244948   1.137   2.405   6.636  0.3675  0.0332  0.1612
14503SOL     OW44949   4.447   1.923   2.523  0.0947  0.3886  0.1820
14503SOL    HW144950   4.500   1.890   2.595  0.5805 -0.0664 -0.3767
14503SOL    HW244951   4.508   1.976   2.471  0.4937 -1.5107 -1.4189
14504SOL     OW44952   1.728   5.032   1.690  0.1632 -0.5362 -0.4673
14504SOL    HW144953   1.721   5.092   1.616  0.2149  0.3978  0.2545
14504SOL    HW244954   1.820   5.008   1.693  0.1872 -0.4635 -0.6137
14505SOL     OW44955   2.873   4.723   7.073 -0.5423  0.1082 -0.6219
14505SOL    HW144956   2.935   4.780   7.119 -1.0114  0.3502 -0.2784
14505SOL    HW244957   2.926   4.679   7.007  0.1219 -0.1310  0.0502
14506SOL     OW44958   0.097   6.542   5.253 -0.5545  0.1067 -0.2295
14506SOL    HW144959   0.048   6.507   5.178  1.3808  0.1401 -1.5935
14506SOL    HW244960   0.057   6.501   5.329 -1.0213 -1.9015 -1.4777
14507SOL     OW44961   0.685   7.815   3.972 -0.0277 -0.2694  0.9131
14507SOL    HW144962   0.672   7.727   4.007 -1.2019 -1.1345 -1.4520
14507SOL    HW244963   0.660   7.874   4.043 -1.2364 -1.8827  1.8833
14508SOL     OW44964   7.320   7.581   4.141  0.2347  0.5618 -0.8226
14508SOL    HW144965   7.277   7.546   4.219  1.3604  0.5817 -0.1712
14508SOL    HW244966   7.248   7.602   4.081 -0.6159  0.0535 -0.0020
14509SOL     OW44967   1.750   5.440   0.487 -0.2260 -0.2752 -0.0694
14509SOL    HW144968   1.748   5.506   0.556  0.3045 -1.2105  0.8687
14509SOL    HW244969   1.665   5.450   0.443 -1.4677 -0.9555  2.0067
14510SOL     OW44970   2.532   1.676   7.145  0.1508  0.0373  0.1445
14510SOL    HW144971   2.544   1.695   7.052  1.2135 -2.3122 -0.2506
14510SOL    HW244972   2.441   1.698   7.162 -0.5821 -1.1426 -1.8965
14511SOL     OW44973   6.547   3.099   9.385  0.5173  0.1765  0.1283
14511SOL    HW144974   6.462   3.076   9.422  0.9752 -2.4768 -0.3117
14511SOL    HW244975   6.606   3.104   9.460  0.1205  1.4521  0.3750
14512SOL     OW44976   3.863   4.264   9.019 -0.5066 -0.0772 -0.0586
14512SOL    HW144977   3.826   4.338   9.066 -0.9391 -1.9854  2.8678
14512SOL    HW244978   3.804   4.251   8.944 -0.1454  2.7095 -0.9232
14513SOL     OW44979   0.450   6.321   2.257 -0.5454  0.4702  0.4093
14513SOL    HW144980   0.365   6.288   2.226  0.2740 -2.1859  0.7833
14513SOL    HW244981   0.506   6.319   2.179 -1.1284  3.7622 -0.2403
14514SOL     OW44982   6.815   7.852  10.444 -0.0900 -0.5168  0.2229
14514SOL    HW144983   6.833   7.932  10.394 -1.7387 -0.5432 -0.5039
14514SOL    HW244984   6.900   7.822  10.474  0.6242  1.2210  0.0585
14515SOL     OW44985   6.732   1.230   3.407  0.2884 -0.0921  0.4267
14515SOL    HW144986   6.709   1.311   3.360  0.2851 -0.1234  0.3744
14515SOL    HW244987   6.825   1.217   3.389  1.1041  1.5855  2.9586
14516SOL     OW44988   1.934   5.572   7.268 -0.0233 -0.5563  0.5919
14516SOL    HW144989   1.943   5.522   7.186 -0.3032 -0.2855  0.3951
14516SOL    HW244990   1.865   5.527   7.316  1.1337 -1.6087  1.3489
14517SOL     OW44991   7.539   0.373   4.141  0.0918  0.0325 -0.2985
14517SOL    HW144992   7.450   0.371   4.106  0.5004 -0.3998 -1.3518
14517SOL    HW244993   7.595   0.354   4.065  1.0685  0.1081  0.3874
14518SOL     OW44994   5.006   5.402   8.526 -0.2925  0.2754 -0.1231
14518SOL    HW144995   4.947   5.455   8.580 -0.2949 -0.7944  0.9693
14518SOL    HW244996   5.026   5.458   8.451 -2.9412  0.5829 -0.7044
14519SOL     OW44997   3.253   2.944   8.549 -0.1703  0.2289 -0.3089
14519SOL    HW144998   3.265   2.990   8.633 -0.1746 -0.1016 -0.1269
14519SOL    HW244999   3.265   2.852   8.570 -2.3734 -0.0791 -0.2339
14520SOL     OW45000   7.300   5.384   8.826  0.3518  0.4428 -0.0569
14520SOL    HW145001   7.221   5.421   8.866  1.6553  0.6933  2.4549
14520SOL    HW245002   7.320   5.307   8.879  2.2396  0.8700 -0.0844
14521SOL     OW45003   3.535   7.400   9.480 -0.2355  0.5285  0.2300
14521SOL    HW145004   3.549   7.358   9.565  0.5333 -1.3418 -0.7585
14521SOL    HW245005   3.598   7.473   9.479 -0.2987  0.6115  1.2783
14522SOL     OW45006   2.062   2.242   7.432 -0.1040 -0.1227  0.2424
14522SOL    HW145007   2.152   2.209   7.436 -0.1321 -0.2077  0.1762
14522SOL    HW245008   2.014   2.175   7.383  0.0563  0.5125 -0.7901
14523SOL     OW45009   0.188   5.527   5.725  0.1292  0.2442 -0.0536
14523SOL    HW145010   0.161   5.437   5.709  0.1160  0.4480 -1.3250
14523SOL    HW245011   0.116   5.580   5.690  0.4715  0.7494 -0.0154
14524SOL     OW45012   4.368   0.904  10.866 -0.0409  0.1643 -0.2917
14524SOL    HW145013   4.449   0.864  10.898 -1.1115 -2.2907 -0.4046
14524SOL    HW245014   4.336   0.956  10.939  0.8486 -0.0975  0.3031
14525SOL     OW45015   1.325   5.292   6.209 -1.0419  0.2771 -0.2539
14525SOL    HW145016   1.233   5.286   6.182 -1.1301 -0.5135  0.2054
14525SOL    HW245017   1.322   5.339   6.292 -1.0847 -0.2087  0.0219
14526SOL     OW45018   5.053   6.612   2.430 -0.0930  0.0033  0.1754
14526SOL    HW145019   5.042   6.707   2.418 -1.1067 -0.1992 -0.6465
14526SOL    HW245020   5.143   6.602   2.462  0.3332  1.1777 -0.5844
14527SOL     OW45021   2.408   0.280   1.472  0.5254 -0.3423 -0.0162
14527SOL    HW145022   2.425   0.374   1.468  0.8231 -0.4091 -0.3862
14527SOL    HW245023   2.366   0.259   1.388  1.5421 -0.7432 -0.4425
14528SOL     OW45024   1.023   4.323  11.038 -0.3575 -0.1538 -0.3058
14528SOL    HW145025   1.022   4.328  10.942  0.2645  0.4794 -0.2845
14528SOL    HW245026   0.976   4.401  11.067 -2.0607 -1.2104 -0.0959
14529SOL     OW45027   5.679   3.334   8.693  0.8152  0.1120  0.1378
14529SOL    HW145028   5.765   3.295   8.681  0.4657 -0.4914 -0.4444
14529SOL    HW245029   5.688   3.389   8.771  1.1779 -1.5243  1.2815
14530SOL     OW45030   3.801   7.590   1.880  0.6531 -0.7098  0.3305
14530SOL    HW145031   3.851   7.625   1.954  0.9740 -0.3524 -0.0517
14530SOL    HW245032   3.773   7.503   1.909 -2.6488  0.8665  2.4855
14531SOL     OW45033   0.332   0.546  10.411 -0.2292 -0.1212 -0.2016
14531SOL    HW145034   0.409   0.592  10.444 -1.7967  2.5144  0.0488
14531SOL    HW245035   0.358   0.454  10.412  2.1870  0.4457  1.8231
14532SOL     OW45036   7.804   0.917   5.699  0.2294  0.2016 -0.1305
14532SOL    HW145037   7.847   0.995   5.663  1.0600  0.1061  0.6348
14532SOL    HW245038   7.853   0.897   5.779 -1.4172  0.2705  0.9455
14533SOL     OW45039   4.651   7.016   8.276  0.3851 -0.2050 -0.1936
14533SOL    HW145040   4.640   7.023   8.181 -0.7839  0.4040 -0.0231
14533SOL    HW245041   4.726   7.071   8.296  0.5013 -0.1619 -0.7382
14534SOL     OW45042   4.147   4.135   5.123  0.2596  0.1416  0.4114
14534SOL    HW145043   4.197   4.189   5.062 -1.6095  0.2430 -1.1648
14534SOL    HW245044   4.110   4.065   5.068  0.7334 -1.4004  1.9737
14535SOL     OW45045   4.766   2.467   6.361  0.2040  0.1669  0.2756
14535SOL    HW145046   4.690   2.525   6.366  1.4836  2.0648 -0.6636
14535SOL    HW245047   4.833   2.511   6.414  1.9885  0.9428 -2.4008
14536SOL     OW45048   5.876   1.836   9.472 -0.1352  0.0672 -0.0083
14536SOL    HW145049   5.915   1.749   9.484 -0.2269  0.3551  3.8641
14536SOL    HW245050   5.945   1.897   9.495 -1.1030  0.8193  1.0304
14537SOL     OW45051   4.646   4.759   4.688 -0.3148  0.1331 -0.2871
14537SOL    HW145052   4.615   4.725   4.772  0.6898  0.5950  0.2922
14537SOL    HW245053   4.616   4.850   4.686 -0.5623  0.0476 -0.5526
14538SOL     OW45054   0.383   4.342   5.750  0.1703  0.3408  0.3726
14538SOL    HW145055   0.462   4.292   5.770 -1.2411 -1.3870  2.1020
14538SOL    HW245056   0.368   4.394   5.829 -1.3690 -0.7559  0.8551
14539SOL     OW45057   1.576   1.485   0.009  0.2923 -0.4094 -0.4307
14539SOL    HW145058   1.492   1.451  -0.022 -0.1887  0.5648 -0.2401
14539SOL    HW245059   1.577   1.464   0.102 -0.4076  0.8222 -0.1155
14540SOL     OW45060   4.175   3.795  10.585 -0.0370  0.2209  0.9618
14540SOL    HW145061   4.224   3.854  10.643  0.5540  1.8087 -1.0221
14540SOL    HW245062   4.240   3.766  10.521 -0.7245 -1.2606  0.8983
14541SOL     OW45063   5.316   6.330   7.464  0.5892  0.1520 -0.1155
14541SOL    HW145064   5.370   6.306   7.540 -0.6150 -2.0019  0.1527
14541SOL    HW245065   5.314   6.425   7.465  1.9847  0.2149  1.5706
14542SOL     OW45066   2.496   4.213   2.743 -0.0563 -0.4627 -0.0521
14542SOL    HW145067   2.561   4.158   2.699 -0.0667 -0.4922 -0.0311
14542SOL    HW245068   2.437   4.241   2.672  0.4717  0.2617 -0.2065
14543SOL     OW45069   0.791   6.733  10.456  0.1387  0.2271 -0.6942
14543SOL    HW145070   0.724   6.694  10.512 -0.4212 -0.3196 -1.7206
14543SOL    HW245071   0.870   6.734  10.511 -0.6641  0.7595  0.4782
14544SOL     OW45072   6.811   0.497   1.099 -0.2497  0.0146  0.0784
14544SOL    HW145073   6.722   0.494   1.136  0.1477  0.3296  1.0806
14544SOL    HW245074   6.859   0.557   1.156  1.3479 -2.1863  1.1721
14545SOL     OW45075   3.523   5.094   6.225 -0.4870  0.4986 -0.4199
14545SOL    HW145076   3.593   5.094   6.160 -0.8791 -0.0898 -0.8539
14545SOL    HW245077   3.453   5.042   6.185 -1.3684  1.4789 -0.1905
14546SOL     OW45078   5.464   7.645   9.890 -0.4027 -0.1074 -0.0634
14546SOL    HW145079   5.460   7.662   9.984 -0.0187 -1.7399  0.2880
14546SOL    HW245080   5.547   7.599   9.878 -0.6828 -0.3548 -1.1214
14547SOL     OW45081   2.028   2.861   7.325  0.7507  0.3943 -0.4280
14547SOL    HW145082   2.037   2.774   7.287  0.1788  0.3766 -0.5233
14547SOL    HW245083   2.117   2.883   7.355  0.4268 -1.3584  2.1211
14548SOL     OW45084   5.261   6.511   1.592 -0.5077 -0.4129 -0.5531
14548SOL    HW145085   5.202   6.500   1.666 -0.0763 -1.2356 -0.3160
14548SOL    HW245086   5.254   6.429   1.543  1.7041 -1.2988  0.4329
14549SOL     OW45087   2.194   6.606  10.208 -0.3408 -0.4919 -0.2663
14549SOL    HW145088   2.103   6.612  10.239 -0.9667 -0.9029 -1.9207
14549SOL    HW245089   2.235   6.545  10.268 -1.0511 -0.0062  0.7461
14550SOL     OW45090   5.530   3.068   1.266  0.4109 -0.3173 -0.3409
14550SOL    HW145091   5.444   3.030   1.284 -0.3823  1.1591 -0.8518
14550SOL    HW245092   5.576   3.067   1.350 -0.7540  0.4472  0.3257
14551SOL     OW45093   1.562   5.363   8.807 -0.2492 -0.0806 -0.0790
14551SOL    HW145094   1.508   5.442   8.811  0.5378  0.6783 -2.3363
14551SOL    HW245095   1.652   5.396   8.805  0.2976 -1.2547  2.2741
14552SOL     OW45096   4.972   0.128  11.006 -0.1766 -0.3169 -0.4813
14552SOL    HW145097   4.997   0.051  11.058  0.8635  0.9289  0.9399
14552SOL    HW245098   5.017   0.201  11.047 -3.1423  1.5095 -0.1733
14553SOL     OW45099   1.083   2.082   6.569 -0.0122 -0.1791 -0.4150
14553SOL    HW145100   1.132   2.152   6.612 -0.2405  0.1198 -0.6266
14553SOL    HW245101   1.145   2.010   6.559  0.2155 -0.0159 -0.1621
14554SOL     OW45102   2.086   2.978   1.147 -0.1083 -0.3958  0.1682
14554SOL    HW145103   2.019   2.913   1.124 -1.0025  0.4867  0.1749
14554SOL    HW245104   2.163   2.927   1.169 -1.2566 -1.5471  1.7782
14555SOL     OW45105   0.107   4.316   5.224  0.2796 -0.7116  0.0446
14555SOL    HW145106   0.088   4.228   5.191  0.5763 -1.2743  1.2824
14555SOL    HW245107   0.067   4.318   5.311  1.0554  0.0482  0.4049
14556SOL     OW45108   3.810   0.967  10.453  0.3019  0.1999 -0.3638
14556SOL    HW145109   3.818   0.935  10.543  0.3009 -0.3433 -0.5515
14556SOL    HW245110   3.747   1.039  10.458 -0.0228 -0.1052  0.0093
14557SOL     OW45111   7.460   7.464   0.860 -0.3532 -0.2067 -0.0538
14557SOL    HW145112   7.524   7.396   0.840  1.5338  0.8937  1.7982
14557SOL    HW245113   7.378   7.432   0.821  0.9872 -2.2963 -1.3990
14558SOL     OW45114   6.702   1.407   1.780  0.0527  0.5333  0.5210
14558SOL    HW145115   6.613   1.425   1.810 -0.1177  1.7265 -0.6104
14558SOL    HW245116   6.713   1.462   1.702  1.5536 -0.0881  0.2540
14559SOL     OW45117   6.459   4.285   0.602  0.4316 -0.1349  0.8850
14559SOL    HW145118   6.459   4.193   0.576 -0.5756 -0.3095  1.4541
14559SOL    HW245119   6.460   4.333   0.519  1.7959 -0.6250  0.5816
14560SOL     OW45120   5.275   0.239   1.354  0.2850  0.1417 -0.8427
14560SOL    HW145121   5.274   0.179   1.429  1.0552  1.1975  0.0574
14560SOL    HW245122   5.316   0.189   1.284  0.7118 -0.4686 -0.1816
14561SOL     OW45123   0.070   2.413   1.260  0.2102  0.2046 -0.0417
14561SOL    HW145124   0.120   2.491   1.282  1.0571 -0.3452  0.0153
14561SOL    HW245125  -0.020   2.434   1.285  0.8548  0.1809  2.5805
14562SOL     OW45126   5.498   3.533  10.962  0.2073 -0.8858  0.0155
14562SOL    HW145127   5.510   3.496  11.049  2.3172 -2.8701 -1.0020
14562SOL    HW245128   5.442   3.470  10.916 -0.8985  0.1474 -0.1073
14563SOL     OW45129   2.147   2.958   5.972  0.2544 -0.2871  0.4324
14563SOL    HW145130   2.138   2.863   5.974 -0.7236 -0.2154  0.3165
14563SOL    HW245131   2.158   2.978   5.879  0.8970 -0.3213  0.5025
14564SOL     OW45132   2.440   5.209   0.616 -0.4314 -0.4546 -0.1202
14564SOL    HW145133   2.399   5.174   0.536  0.3279 -0.2143 -0.6218
14564SOL    HW245134   2.525   5.242   0.587  0.3961 -1.4890  1.0012
14565SOL     OW45135   4.962   3.140   6.061 -0.2536  0.2491 -0.4430
14565SOL    HW145136   4.930   3.111   5.975 -0.1306 -0.0498 -0.3880
14565SOL    HW245137   4.931   3.074   6.122 -2.0082  1.4630  0.0424
14566SOL     OW45138   1.270   5.766   9.816 -0.0074  0.3364 -0.3489
14566SOL    HW145139   1.209   5.696   9.838 -0.1020  1.2138  2.7269
14566SOL    HW245140   1.216   5.833   9.775 -0.5394 -0.1155 -0.3892
14567SOL     OW45141   5.181   5.481  11.923 -0.0683 -0.7136 -0.2241
14567SOL    HW145142   5.240   5.476  11.847  0.7403 -2.0485  0.4529
14567SOL    HW245143   5.237   5.463  11.998 -0.7817  0.9787  0.7636
14568SOL     OW45144   0.231   7.600   2.155  0.1474 -0.1588  0.2644
14568SOL    HW145145   0.180   7.542   2.212 -1.2239  1.9123  1.2380
14568SOL    HW245146   0.166   7.639   2.096  0.8626  1.1784  0.3375
14569SOL     OW45147   5.319   0.202   2.819 -0.3475  0.0935  0.2829
14569SOL    HW145148   5.267   0.280   2.839 -1.9085 -0.7645 -0.2909
14569SOL    HW245149   5.256   0.130   2.819  0.7787 -0.9416 -0.7642
14570SOL     OW45150   5.294   0.435   3.406 -0.0419 -0.4208 -0.4197
14570SOL    HW145151   5.219   0.386   3.440 -0.3528 -0.6603 -1.4152
14570SOL    HW245152   5.345   0.371   3.357  1.5743 -0.5750  1.3422
14571SOL     OW45153   1.789   4.726   6.522 -0.1234 -0.0112  0.0260
14571SOL    HW145154   1.839   4.742   6.603  1.1579 -0.3529 -0.6652
14571SOL    HW245155   1.708   4.684   6.552 -0.5391  1.5789  1.2772
14572SOL     OW45156   3.330   6.165   4.490  0.3360 -0.1211 -0.5849
14572SOL    HW145157   3.251   6.172   4.544 -1.1624  1.0757 -2.7875
14572SOL    HW245158   3.402   6.159   4.554 -1.1890  2.3144  1.5756
14573SOL     OW45159   5.783   4.953  11.753  0.1910  0.3471  0.1256
14573SOL    HW145160   5.873   4.984  11.740  0.9714 -0.5608  2.6747
14573SOL    HW245161   5.743   5.022  11.807  0.2911 -0.5267  1.3632
14574SOL     OW45162   6.393   7.327   7.433  0.0464 -0.0258 -0.2982
14574SOL    HW145163   6.424   7.358   7.518 -2.1254  0.1776  0.4744
14574SOL    HW245164   6.449   7.373   7.370  0.5332  1.2172  0.9675
14575SOL     OW45165   1.829   2.407   1.268  0.2602 -0.0393  0.1160
14575SOL    HW145166   1.903   2.382   1.323  0.3466  0.2205  0.1159
14575SOL    HW245167   1.779   2.325   1.257  1.0181 -0.4218 -0.6070
14576SOL     OW45168   2.066   1.989  10.153  0.8724  0.4313  0.1960
14576SOL    HW145169   1.987   1.955  10.194  0.0423  2.3181  0.2675
14576SOL    HW245170   2.122   2.014  10.226  1.9353 -1.6077  0.1591
14577SOL     OW45171   5.484   4.494   1.289 -0.2204  0.0635  0.5728
14577SOL    HW145172   5.517   4.499   1.378  0.3013 -0.9765  0.4517
14577SOL    HW245173   5.493   4.583   1.255  2.2294 -0.1096  0.6309
14578SOL     OW45174   4.375   1.491   5.668 -0.6545 -0.3214  0.3653
14578SOL    HW145175   4.383   1.405   5.709 -1.5809 -0.6877 -0.1875
14578SOL    HW245176   4.293   1.527   5.704 -0.4673  0.1763  0.3074
14579SOL     OW45177   1.076   7.792   9.932  0.2329 -0.1105 -1.0473
14579SOL    HW145178   1.051   7.868   9.984  1.9326 -0.4774  0.3943
14579SOL    HW245179   1.078   7.824   9.842 -0.8305  1.0670 -0.6704
14580SOL     OW45180   0.368   5.323  10.285 -0.2169 -0.5269  0.0909
14580SOL    HW145181   0.389   5.264  10.357 -1.5529 -1.1875 -0.0231
14580SOL    HW245182   0.358   5.409  10.326  0.1784 -0.6773  0.5076
14581SOL     OW45183   4.034   0.820   8.357  0.1906 -0.3734  0.0667
14581SOL    HW145184   4.077   0.871   8.289  1.0186 -1.2893 -0.1123
14581SOL    HW245185   4.105   0.787   8.412 -0.4111 -0.3524  0.8852
14582SOL     OW45186   0.354   0.116   1.955 -0.2539  0.1835  0.2739
14582SOL    HW145187   0.323   0.111   1.864 -0.1485  0.7449  0.2029
14582SOL    HW245188   0.384   0.028   1.974  0.9335  0.3525 -0.6814
14583SOL     OW45189   1.516   5.461   0.349  0.5803 -0.0144  0.1845
14583SOL    HW145190   1.505   5.481   0.256  1.1531  2.4071  0.5676
14583SOL    HW245191   1.452   5.392   0.367 -0.2471  0.1945 -1.7729
14584SOL     OW45192   5.366   4.513   4.927 -0.0248 -0.5221  0.2061
14584SOL    HW145193   5.283   4.464   4.934  0.2634 -1.1496 -0.5363
14584SOL    HW245194   5.344   4.590   4.875 -0.4191 -0.0071  1.1232
14585SOL     OW45195   1.879   6.333   5.239  0.3449  0.0522  0.4808
14585SOL    HW145196   1.901   6.323   5.147 -0.0995  0.2119  0.3529
14585SOL    HW245197   1.815   6.404   5.240 -1.7825 -1.7571  0.5809
14586SOL     OW45198   3.870   2.522  10.629  0.3342  0.3851 -0.2869
14586SOL    HW145199   3.895   2.523  10.721 -0.5882  3.1327  0.0137
14586SOL    HW245200   3.776   2.504  10.629 -0.0360  2.1264 -0.5052
14587SOL     OW45201   4.520   1.635   6.152 -0.0478  0.1258  0.1919
14587SOL    HW145202   4.588   1.677   6.100 -0.0599 -0.2083 -0.0954
14587SOL    HW245203   4.489   1.704   6.210 -0.6383  0.7455 -0.8285
14588SOL     OW45204   0.949   2.904  10.133  0.3991 -0.6536 -0.0247
14588SOL    HW145205   0.928   2.811  10.120 -0.2204 -0.6816  0.9900
14588SOL    HW245206   1.043   2.910  10.122  0.0974 -0.7217 -3.7987
14589SOL     OW45207   3.036   7.882   0.223  0.0396  0.5202 -0.6732
14589SOL    HW145208   2.957   7.921   0.260  0.0107 -0.4218  0.2783
14589SOL    HW245209   3.107   7.938   0.252  0.2755 -1.2704  2.6099
14590SOL     OW45210   2.883   1.871   8.557  0.3320 -0.3148  0.2546
14590SOL    HW145211   2.920   1.894   8.471 -0.9278  1.0773  0.0345
14590SOL    HW245212   2.863   1.955   8.597 -0.4133 -0.9783  1.3178
14591SOL     OW45213   0.587   0.083   0.413 -0.1179  0.3842  0.0657
14591SOL    HW145214   0.566   0.083   0.320 -0.7422 -0.4038  0.1966
14591SOL    HW245215   0.503   0.095   0.457  0.2153  1.1245  0.5345
14592SOL     OW45216   4.383   1.672   7.693  0.4105 -0.1432 -0.5781
14592SOL    HW145217   4.296   1.635   7.681  1.4411 -2.3845 -1.6585
14592SOL    HW245218   4.411   1.697   7.605  0.6220  1.2518 -0.1509
14593SOL     OW45219   7.210   4.024  11.039  0.1942 -0.4274  0.4793
14593SOL    HW145220   7.182   3.935  11.061  2.0399 -1.0655  0.4849
14593SOL    HW245221   7.177   4.079  11.110 -1.3098 -1.0181  0.2684
14594SOL     OW45222   7.303   7.271   8.389 -0.0335 -0.2231 -0.3393
14594SOL    HW145223   7.213   7.297   8.406  0.4306  0.2988  1.6434
14594SOL    HW245224   7.316   7.288   8.296 -1.7253  0.5033 -0.4785
14595SOL     OW45225   1.877   6.556   6.809 -0.3391 -0.1761 -0.0370
14595SOL    HW145226   1.816   6.589   6.874 -0.6443 -2.2862  0.8151
14595SOL    HW245227   1.958   6.604   6.826 -0.7036  0.0162  1.2414
14596SOL     OW45228   4.428   0.131   8.924 -0.0627 -0.2368  0.6841
14596SOL    HW145229   4.359   0.168   8.980 -0.8134 -0.4008 -0.1158
14596SOL    HW245230   4.414   0.037   8.928 -1.6287 -0.1873 -1.5848
14597SOL     OW45231   6.600   6.202  11.823  0.5690 -0.2064  0.2876
14597SOL    HW145232   6.599   6.236  11.912 -0.8014  0.9939 -0.1311
14597SOL    HW245233   6.525   6.142  11.819 -0.3083  0.8834 -0.4163
14598SOL     OW45234   1.684   0.163  11.807  0.2363  0.0354 -0.4088
14598SOL    HW145235   1.739   0.226  11.760 -1.1499  1.2524 -0.4601
14598SOL    HW245236   1.729   0.150  11.891  0.4888  1.2158 -0.3356
14599SOL     OW45237   4.266   3.052   3.566  0.0230 -0.0153 -0.3315
14599SOL    HW145238   4.229   3.019   3.484  0.5733  1.2410 -1.1084
14599SOL    HW245239   4.268   3.147   3.556 -0.8602  0.2585  1.5707
14600SOL     OW45240   4.251   5.257  10.232  0.2210 -0.3947 -0.5031
14600SOL    HW145241   4.290   5.272  10.146  3.6387 -1.0602  0.7465
14600SOL    HW245242   4.259   5.163  10.246 -0.2974 -0.3025  0.5257
14601SOL     OW45243   7.025   1.922   7.628 -0.5781  0.6450 -0.4640
14601SOL    HW145244   7.121   1.923   7.626 -0.5218 -0.6700  0.2736
14601SOL    HW245245   6.999   1.988   7.564  0.8269  0.5082 -1.2240
14602SOL     OW45246   7.636   7.686  11.354 -0.5190 -0.2343  0.4936
14602SOL    HW145247   7.677   7.643  11.279 -0.5555  0.3975  0.1002
14602SOL    HW245248   7.709   7.711  11.410 -0.1431  2.2128 -0.9007
14603SOL     OW45249   1.855   3.617  11.435 -0.2884 -0.6817 -0.3674
14603SOL    HW145250   1.882   3.671  11.361  1.0465  0.5125  0.9241
14603SOL    HW245251   1.794   3.672  11.484  1.6429  0.0463  1.3598
14604SOL     OW45252   4.223   7.264   9.633  0.1437  0.2952  0.1044
14604SOL    HW145253   4.282   7.318   9.581  1.6905 -0.9908  0.4511
14604SOL    HW245254   4.211   7.314   9.714  0.8053  0.5432  0.0582
14605SOL     OW45255   2.534   3.360  11.595 -0.4813 -0.3880 -0.3362
14605SOL    HW145256   2.547   3.355  11.690 -3.1337 -0.3602  0.1165
14605SOL    HW245257   2.439   3.347  11.583 -0.3626  0.5223 -2.9170
14606SOL     OW45258   2.556   7.665   0.572  0.0734  0.1679  0.0744
14606SOL    HW145259   2.472   7.656   0.528  0.5158  0.6118 -0.8980
14606SOL    HW245260   2.617   7.617   0.516  0.5273  0.1260  0.5944
14607SOL     OW45261   1.614   6.489  10.797 -0.5698  0.1049 -0.3131
14607SOL    HW145262   1.519   6.491  10.800 -0.5566  0.8564 -0.3529
14607SOL    HW245263   1.636   6.512  10.707 -0.3611 -0.7337 -0.4875
14608SOL     OW45264   6.427   5.599  11.413 -0.2503 -0.8224  0.2944
14608SOL    HW145265   6.471   5.554  11.341  0.0647 -0.0425 -0.0100
14608SOL    HW245266   6.353   5.542  11.435  0.2418 -1.5697  0.0417
14609SOL     OW45267   7.308   6.977  11.859 -0.3098 -0.1705  0.1808
14609SOL    HW145268   7.254   6.911  11.902 -1.8258 -0.4405 -1.9479
14609SOL    HW245269   7.253   7.009  11.787  1.2515  1.7769 -0.2246
14610SOL     OW45270   6.975   4.201   7.933  0.1310  0.1227 -0.3411
14610SOL    HW145271   7.000   4.226   8.022  2.0487  1.6440 -1.2382
14610SOL    HW245272   7.054   4.213   7.881 -1.1329  0.0606 -2.4216
14611SOL     OW45273   6.746   7.724   8.379  0.2263  0.0545  0.4633
14611SOL    HW145274   6.692   7.797   8.351  0.9537  0.7975  0.9422
14611SOL    HW245275   6.812   7.714   8.310 -1.1209 -1.5587 -0.6727
14612SOL     OW45276   5.934   0.896  10.751  0.9510  0.7734 -0.3027
14612SOL    HW145277   5.841   0.893  10.771  1.2068 -0.0645  0.8466
14612SOL    HW245278   5.960   0.987  10.768  0.5262  0.7953  0.2291
14613SOL     OW45279   1.167   0.832   0.018  0.0013 -0.1019  0.5731
14613SOL    HW145280   1.226   0.789   0.080 -1.5621 -2.2507  0.7038
14613SOL    HW245281   1.087   0.847   0.069 -0.9748 -1.0407 -0.6166
14614SOL     OW45282   4.213   6.420   0.300  0.8371 -0.2431  0.0471
14614SOL    HW145283   4.217   6.514   0.283 -0.8985  0.2414  1.9206
14614SOL    HW245284   4.274   6.406   0.373  0.3018 -0.3741  0.4719
14615SOL     OW45285   0.973   5.262   7.040  0.4085 -0.0785  0.1908
14615SOL    HW145286   0.988   5.309   6.958  3.1591  0.9681  1.1817
14615SOL    HW245287   0.903   5.200   7.019 -0.9256  2.0263 -2.1418
14616SOL     OW45288   6.071   7.774   5.410  0.3307 -0.0258  0.0574
14616SOL    HW145289   6.121   7.694   5.427  0.4929 -0.0880 -0.6692
14616SOL    HW245290   6.110   7.810   5.329  1.3147  1.6225  1.1987
14617SOL     OW45291   4.967   4.636   5.391 -0.0172  0.0326 -0.2171
14617SOL    HW145292   4.963   4.591   5.307  0.0358 -0.6535  0.1369
14617SOL    HW245293   4.876   4.649   5.417 -0.0622  1.3826 -0.9557
14618SOL     OW45294   5.374   6.679   4.197 -0.3682  0.5237  0.3338
14618SOL    HW145295   5.411   6.754   4.244 -1.8394  1.8080 -0.5046
14618SOL    HW245296   5.280   6.682   4.216 -0.6167 -0.4467 -0.6302
14619SOL     OW45297   7.509   0.366   6.694 -0.5745 -0.6865 -0.0395
14619SOL    HW145298   7.540   0.352   6.605 -1.8210  0.0739 -0.6094
14619SOL    HW245299   7.434   0.424   6.685 -0.3030 -0.0371  1.5731
14620SOL     OW45300   7.714   7.510   2.431 -0.2212  0.3015 -0.0524
14620SOL    HW145301   7.691   7.446   2.364  1.8722 -0.8634  0.2839
14620SOL    HW245302   7.631   7.554   2.451 -1.3829 -1.1102 -1.5179
14621SOL     OW45303   6.060   0.924   8.007  0.0827  0.1232 -0.4460
14621SOL    HW145304   6.112   0.889   7.935  3.4926  1.7965  0.9516
14621SOL    HW245305   6.076   1.019   8.005 -2.0997  0.5769  0.7589
14622SOL     OW45306   7.340   4.031   1.605  0.0889  0.5971 -0.4125
14622SOL    HW145307   7.395   4.090   1.655  0.8742  0.0097 -0.5714
14622SOL    HW245308   7.401   3.978   1.553 -0.5135 -1.0560  0.4838
14623SOL     OW45309   2.336   6.110   5.777  0.1369 -0.7048 -0.4967
14623SOL    HW145310   2.308   6.101   5.868  0.6882 -1.9750 -0.4236
14623SOL    HW245311   2.280   6.179   5.741 -0.9785 -1.0771  0.4592
14624SOL     OW45312   6.255   6.507   9.418  0.5289  0.2338  0.2372
14624SOL    HW145313   6.291   6.566   9.351 -0.3376 -0.6237 -1.0374
14624SOL    HW245314   6.182   6.557   9.457  2.1687  1.4611  1.9117
14625SOL     OW45315   3.292   2.041  10.894  0.3162  0.1764 -0.1032
14625SOL    HW145316   3.262   1.987  10.966  0.1773  2.2448  1.4824
14625SOL    HW245317   3.272   1.990  10.815 -1.1591 -1.3891  1.2163
14626SOL     OW45318   1.469   5.549   6.575  0.2225 -0.2543 -0.6969
14626SOL    HW145319   1.389   5.598   6.593  0.2538 -0.6287  0.5981
14626SOL    HW245320   1.520   5.557   6.656  1.7141  0.3754 -1.6678
14627SOL     OW45321   3.953   7.247   6.454  0.1752 -0.2494  0.3045
14627SOL    HW145322   4.011   7.310   6.412 -0.2626  0.1624  0.3183
14627SOL    HW245323   3.950   7.173   6.393  1.2916 -0.6004  0.6339
14628SOL     OW45324   1.067   6.441   0.830 -0.4108  0.0313  0.0843
14628SOL    HW145325   1.084   6.368   0.770  0.8063  0.9603 -0.7641
14628SOL    HW245326   1.043   6.514   0.772  1.0317  1.0183  0.6745
14629SOL     OW45327   2.597   3.053   9.065 -0.2285  0.1782  0.9116
14629SOL    HW145328   2.586   3.142   9.098  0.0349  0.2858  0.7119
14629SOL    HW245329   2.646   3.008   9.135  1.1469  0.6557  0.2973
14630SOL     OW45330   7.826   0.374   8.140  0.3993 -0.7848 -0.2256
14630SOL    HW145331   7.855   0.285   8.158  1.7140 -0.6803 -1.5361
14630SOL    HW245332   7.821   0.378   8.044  2.8530  1.1980 -0.3953
14631SOL     OW45333   0.155   7.716   7.353 -0.6206 -0.3441  0.5882
14631SOL    HW145334   0.084   7.720   7.417 -1.6946  0.1297 -0.6037
14631SOL    HW245335   0.221   7.776   7.387 -0.7326 -0.8428  1.7411
14632SOL     OW45336   5.297   5.991  10.097  0.0082  0.4646  0.2490
14632SOL    HW145337   5.274   5.979  10.005  0.8417  0.9510 -0.0291
14632SOL    HW245338   5.347   5.912  10.119 -0.4816  0.1856  0.3940
14633SOL     OW45339   1.011   1.310   6.565  0.3640 -0.0453 -0.0624
14633SOL    HW145340   1.005   1.233   6.622 -0.7337  1.2710  1.6954
14633SOL    HW245341   1.035   1.381   6.624 -2.8875  1.8143 -0.7623
14634SOL     OW45342   1.296   6.922   1.343 -0.3807  0.0775 -0.7133
14634SOL    HW145343   1.355   6.865   1.295 -0.7339 -0.7387 -0.2043
14634SOL    HW245344   1.331   6.923   1.432  0.3896  1.7408 -0.9969
14635SOL     OW45345   5.320   3.081   7.013  0.2838 -0.1395 -0.2073
14635SOL    HW145346   5.312   3.002   7.067  0.0158  0.0258 -0.0012
14635SOL    HW245347   5.230   3.102   6.988  0.5000 -0.9531 -1.8038
14636SOL     OW45348   0.041   6.139  11.515 -0.1489 -0.3836 -0.1969
14636SOL    HW145349   0.015   6.150  11.607 -0.5436 -0.9302 -0.2318
14636SOL    HW245350   0.096   6.215  11.496 -1.0210  0.3583  0.1522
14637SOL     OW45351   4.521   2.286  12.345  0.8140  0.0430  0.5537
14637SOL    HW145352   4.566   2.364  12.378 -0.0384  1.0137 -0.5067
14637SOL    HW245353   4.526   2.223  12.417  1.5605  1.0565  1.4146
14638SOL     OW45354   2.635   6.817   9.295 -0.0706  0.3371  0.6579
14638SOL    HW145355   2.668   6.858   9.375  1.8910  2.3043 -1.0683
14638SOL    HW245356   2.581   6.884   9.254  0.9813  0.3019 -0.8659
14639SOL     OW45357   6.763   0.272   8.427 -0.6729 -0.1130 -0.4341
14639SOL    HW145358   6.707   0.195   8.426 -0.2432 -0.5025  1.3486
14639SOL    HW245359   6.710   0.339   8.471 -0.1704 -0.1449  0.2322
14640SOL     OW45360   3.780   0.756   3.943  0.0634 -0.0786 -0.7687
14640SOL    HW145361   3.782   0.795   3.856 -1.6327 -0.1901 -0.8909
14640SOL    HW245362   3.860   0.703   3.948  0.5096  0.4403 -1.9907
14641SOL     OW45363   6.207   0.577   8.631 -0.8934 -0.3582  0.0726
14641SOL    HW145364   6.207   0.668   8.661 -0.2030  0.0206 -1.0210
14641SOL    HW245365   6.240   0.582   8.541  1.4625 -1.9484  0.7680
14642SOL     OW45366   6.489   3.696  11.513 -0.1434  0.1231 -0.2228
14642SOL    HW145367   6.408   3.688  11.461 -0.0513  1.0355 -0.5213
14642SOL    HW245368   6.500   3.790  11.526 -1.3778 -0.1106  3.4287
14643SOL     OW45369   0.215   0.485  11.740  0.2504  0.0572  0.1176
14643SOL    HW145370   0.251   0.478  11.652  4.3268 -0.3613  1.6168
14643SOL    HW245371   0.218   0.578  11.760  1.2218 -0.0427  0.4753
14644SOL     OW45372   3.760   2.303   1.203  0.2431  0.3260  0.2217
14644SOL    HW145373   3.693   2.251   1.249  0.1314  0.9796  0.8132
14644SOL    HW245374   3.797   2.359   1.271  0.8000  0.5791 -0.2865
14645SOL     OW45375   2.817   7.619   8.881 -0.0863 -0.2766  0.0610
14645SOL    HW145376   2.745   7.589   8.825  1.2458 -0.6586 -1.5225
14645SOL    HW245377   2.889   7.559   8.862  1.1355  1.0104  0.4580
14646SOL     OW45378   2.135   0.133  10.551  0.2819 -0.2263  0.1308
14646SOL    HW145379   2.192   0.061  10.525  3.0907  1.1294  2.0404
14646SOL    HW245380   2.163   0.207  10.497 -0.7504  0.1121  0.0291
14647SOL     OW45381   0.730   3.543   7.312 -0.4681  0.6230 -0.4764
14647SOL    HW145382   0.816   3.504   7.302 -0.3550  0.3463  1.2462
14647SOL    HW245383   0.697   3.552   7.222  1.0818  0.1723 -1.1272
14648SOL     OW45384   7.916   1.316  10.958 -0.1685 -0.0822  0.2961
14648SOL    HW145385   7.918   1.223  10.934 -2.1242 -0.1320  0.1639
14648SOL    HW245386   7.864   1.357  10.889  1.1384  1.2428  0.0446
14649SOL     OW45387   7.293   7.637   7.843 -0.3223 -0.3204  0.0749
14649SOL    HW145388   7.288   7.718   7.793 -0.4908 -1.1570 -1.3175
14649SOL    HW245389   7.301   7.665   7.934  0.7841  1.2627 -0.4773
14650SOL     OW45390   3.697   7.270   0.780  0.0014 -0.3655 -0.2745
14650SOL    HW145391   3.609   7.238   0.764  0.2498 -1.2402  0.0838
14650SOL    HW245392   3.685   7.348   0.834 -0.5636 -0.3014 -0.4902
14651SOL     OW45393   7.588   3.236   6.906  0.0322  0.5336  0.0769
14651SOL    HW145394   7.585   3.227   6.811 -0.7377 -0.3188  0.1645
14651SOL    HW245395   7.639   3.315   6.921  0.1590  0.6858 -1.0421
14652SOL     OW45396   2.262   0.768   2.318  0.4845 -0.7461  0.3664
14652SOL    HW145397   2.192   0.717   2.359  0.8498 -1.2283  0.3952
14652SOL    HW245398   2.262   0.851   2.366  1.1652 -1.4365  1.6223
14653SOL     OW45399   6.159   4.953   6.804  0.1451 -0.1106  0.9095
14653SOL    HW145400   6.148   5.031   6.859  1.7835  0.7635  0.0666
14653SOL    HW245401   6.165   4.988   6.715 -0.0908 -1.2989  0.4202
14654SOL     OW45402   2.583   7.822   5.306  0.0209  0.6422  0.1630
14654SOL    HW145403   2.579   7.913   5.276 -0.3759  0.7008  0.3762
14654SOL    HW245404   2.641   7.824   5.381 -1.5246  1.0976  1.4100
14655SOL     OW45405   1.790   3.382   8.732  0.2627  0.1117  0.0853
14655SOL    HW145406   1.717   3.388   8.793  1.3467 -1.6571  1.6605
14655SOL    HW245407   1.759   3.325   8.662 -0.1056 -0.0686  0.3941
14656SOL     OW45408   0.359   6.162   8.263 -0.3049 -0.2702 -0.1519
14656SOL    HW145409   0.327   6.223   8.329 -1.0940 -0.2059 -0.5806
14656SOL    HW245410   0.285   6.149   8.204 -1.1574 -3.7514  1.3773
14657SOL     OW45411   7.616   6.910   8.145 -0.2861 -0.2415  0.5727
14657SOL    HW145412   7.685   6.898   8.080 -0.6817  0.1963  0.0594
14657SOL    HW245413   7.545   6.852   8.116 -0.3060 -0.3532  0.8430
14658SOL     OW45414   4.922   7.904   8.200  0.4246  0.5193  0.0474
14658SOL    HW145415   4.902   7.829   8.256  1.0929  2.3442  2.9323
14658SOL    HW245416   4.837   7.929   8.162 -0.1969 -0.3170  0.8516
14659SOL     OW45417   3.585   1.523   0.439  0.8215  0.3074 -0.2501
14659SOL    HW145418   3.649   1.478   0.383  0.1310 -1.4011  0.2815
14659SOL    HW245419   3.627   1.606   0.461  3.2291 -1.0867  0.7452
14660SOL     OW45420   4.133   7.334   4.407 -0.0826  0.3604 -0.3497
14660SOL    HW145421   4.055   7.295   4.368 -0.5919  0.6747  0.3422
14660SOL    HW245422   4.130   7.307   4.498  0.9944 -0.2015 -0.4635
14661SOL     OW45423   4.737   5.608   0.920 -0.0255 -0.5643  0.2751
14661SOL    HW145424   4.648   5.643   0.920  0.3695  0.4472 -0.0563
14661SOL    HW245425   4.727   5.518   0.952 -1.1052 -0.3179  0.6545
14662SOL     OW45426   2.221   4.262   9.651  0.2820 -0.3796  0.2207
14662SOL    HW145427   2.297   4.205   9.661  0.5842 -0.2211 -1.0729
14662SOL    HW245428   2.258   4.349   9.637 -0.1666 -0.0769  0.8428
14663SOL     OW45429   1.945   2.148   3.224  0.4770  0.2904  0.6209
14663SOL    HW145430   2.028   2.187   3.252  0.8454  0.1507 -0.2458
14663SOL    HW245431   1.966   2.105   3.141 -0.2862 -0.4171  0.7885
14664SOL     OW45432   1.640   1.040   0.064  0.2620 -0.1181  0.6117
14664SOL    HW145433   1.648   0.994  -0.019 -0.3191  1.6180 -0.4672
14664SOL    HW245434   1.550   1.071   0.066 -0.0449 -1.0016  2.4007
14665SOL     OW45435   2.497   6.334   6.802  0.3294 -0.4833  0.1728
14665SOL    HW145436   2.434   6.358   6.870  0.5707 -0.2776  0.3257
14665SOL    HW245437   2.580   6.321   6.849  0.4895 -0.3696 -0.0740
14666SOL     OW45438   5.413   0.542   4.037 -0.5500  0.3010 -0.2308
14666SOL    HW145439   5.499   0.546   3.995 -0.5995  0.9332 -0.2804
14666SOL    HW245440   5.428   0.492   4.117 -0.1452  0.3602 -0.2644
14667SOL     OW45441   6.855   3.736  11.201 -0.0659 -0.1301 -0.4297
14667SOL    HW145442   6.866   3.779  11.117  0.0400  2.3391  0.7440
14667SOL    HW245443   6.944   3.726  11.235 -0.1441 -0.5662 -0.3387
14668SOL     OW45444   3.012   2.902  10.198  0.2085  0.1881 -0.3828
14668SOL    HW145445   2.943   2.859  10.148  0.1614  0.3078 -0.4209
14668SOL    HW245446   2.995   2.996  10.188 -0.1771  0.2124  0.3727
14669SOL     OW45447   7.545   2.776   0.466 -0.1603  0.5179 -0.1715
14669SOL    HW145448   7.586   2.841   0.408  2.1444  0.3545  1.1571
14669SOL    HW245449   7.462   2.816   0.491  0.7807  2.5841 -0.1198
14670SOL     OW45450   6.431   2.938   7.282 -0.3328  0.1862  0.1288
14670SOL    HW145451   6.370   2.907   7.350 -0.0628  1.8252  1.1701
14670SOL    HW245452   6.417   2.879   7.208 -1.5330 -0.8835  1.1754
14671SOL     OW45453   4.001   0.948  12.002  0.3348 -0.5573 -0.4282
14671SOL    HW145454   4.090   0.918  12.020  0.1577 -2.0040 -1.7109
14671SOL    HW245455   4.009   1.042  11.989  1.7912 -0.7481 -1.1147
14672SOL     OW45456   1.864   7.895  12.371 -0.4425 -0.3030  0.3250
14672SOL    HW145457   1.850   7.817  12.318 -2.4621 -0.0594  0.4252
14672SOL    HW245458   1.899   7.960  12.310 -1.3538 -0.4741 -0.4022
14673SOL     OW45459   5.452   0.992   2.637  0.4847 -0.4160  0.5114
14673SOL    HW145460   5.424   0.917   2.584 -0.6388 -0.0155  0.5132
14673SOL    HW245461   5.374   1.047   2.644  1.3406  0.8607  0.3363
14674SOL     OW45462   0.073   7.345   6.706 -0.2565  0.1244  0.0733
14674SOL    HW145463   0.025   7.288   6.766  0.3676 -1.0635 -0.5254
14674SOL    HW245464   0.012   7.417   6.688 -0.9762 -0.2234  1.0205
14675SOL     OW45465   5.164   0.133  11.813 -0.4029  0.3529 -0.0296
14675SOL    HW145466   5.100   0.143  11.883 -0.5586  0.7766 -0.2277
14675SOL    HW245467   5.195   0.043  11.821 -0.8306  0.2273  0.2308
14676SOL     OW45468   3.135   7.317   9.234  0.1041  0.1541 -0.1342
14676SOL    HW145469   3.078   7.286   9.304  0.8683  0.5192  0.6771
14676SOL    HW245470   3.178   7.238   9.202 -0.0550  0.0135 -0.0067
14677SOL     OW45471   6.921   3.874   1.126 -0.2300  0.1684  0.0287
14677SOL    HW145472   6.899   3.943   1.063 -0.1376 -0.4335 -0.6784
14677SOL    HW245473   6.851   3.878   1.191 -0.0918  1.0927  0.1429
14678SOL     OW45474   2.583   1.442   3.437  0.0507  0.4046 -0.4549
14678SOL    HW145475   2.581   1.380   3.365  1.3647  0.3180 -0.4334
14678SOL    HW245476   2.655   1.412   3.493 -0.5433  0.8320  0.5626
14679SOL     OW45477   4.442   6.796   2.123 -0.4154  0.5074  0.0879
14679SOL    HW145478   4.433   6.747   2.041 -0.0006  0.8732 -0.1834
14679SOL    HW245479   4.452   6.729   2.190  2.5225  0.1987 -0.5381
14680SOL     OW45480   4.734   6.197  11.637  0.4668 -0.3361  0.1543
14680SOL    HW145481   4.707   6.109  11.663 -0.1667 -0.0594  0.4531
14680SOL    HW245482   4.707   6.204  11.545 -0.0968 -0.2144  0.3271
14681SOL     OW45483   0.286   5.072   6.910 -0.5878 -0.6307 -0.9040
14681SOL    HW145484   0.348   5.081   6.838 -0.8335 -1.8363 -1.2957
14681SOL    HW245485   0.326   5.120   6.983  1.1404 -1.9054 -0.9396
14682SOL     OW45486   2.457   4.329   1.463  0.0929 -0.5617 -0.0276
14682SOL    HW145487   2.381   4.287   1.504 -0.3098  0.1778 -0.0041
14682SOL    HW245488   2.426   4.417   1.439  0.7190 -0.5115 -0.6964
14683SOL     OW45489   4.519   1.480   4.305  0.0041  0.7182  0.3723
14683SOL    HW145490   4.474   1.414   4.358  0.6722 -0.3299 -0.3331
14683SOL    HW245491   4.612   1.455   4.309 -0.0004  0.2030 -1.8223
14684SOL     OW45492   7.362   0.176   7.276 -0.2336 -0.4601 -0.6795
14684SOL    HW145493   7.355   0.090   7.234 -2.6118  0.3509 -2.1870
14684SOL    HW245494   7.294   0.175   7.344  1.0158 -0.4054  0.6049
14685SOL     OW45495   3.135   7.767   2.995 -0.3870 -0.2923  0.3332
14685SOL    HW145496   3.076   7.818   2.940 -1.3400 -2.4021 -0.7359
14685SOL    HW245497   3.079   7.699   3.033  0.6402 -0.0475  2.3998
14686SOL     OW45498   7.809   3.786   3.593  0.4266  0.6978  0.2387
14686SOL    HW145499   7.808   3.803   3.687  2.2993 -2.7719  1.0393
14686SOL    HW245500   7.891   3.823   3.562  0.9326 -0.1886  0.4848
14687SOL     OW45501   0.804   3.167   9.591  0.3840  0.5962  0.1199
14687SOL    HW145502   0.712   3.148   9.610  0.4332  1.1675  1.0101
14687SOL    HW245503   0.829   3.230   9.658  1.3557  0.6484 -0.2810
14688SOL     OW45504   5.188   3.705   4.198  0.2822 -0.5031 -0.4383
14688SOL    HW145505   5.110   3.684   4.146 -0.9380 -1.0538  1.5152
14688SOL    HW245506   5.249   3.634   4.177 -0.3696 -0.9935 -0.7487
14689SOL     OW45507   2.908   1.864   5.982  0.2640  0.6256  0.2707
14689SOL    HW145508   2.986   1.903   6.022 -0.0163 -0.4763  1.9769
14689SOL    HW245509   2.904   1.904   5.895  2.1639  1.4579  0.5038
14690SOL     OW45510   1.166   4.032   6.446 -0.1241  0.0155 -0.0183
14690SOL    HW145511   1.120   3.977   6.509 -1.2654  1.2525  0.2699
14690SOL    HW245512   1.248   3.985   6.428 -0.4383 -1.0707  1.2546
14691SOL     OW45513   7.259   4.612   1.929  0.0863  0.0709  0.2051
14691SOL    HW145514   7.289   4.702   1.916 -3.4380  1.1734 -1.6046
14691SOL    HW245515   7.261   4.572   1.842  1.7281 -1.7406  1.0025
14692SOL     OW45516   2.371   0.402   7.746 -0.2841 -0.1731 -0.4197
14692SOL    HW145517   2.415   0.429   7.826  0.7814 -0.1458 -0.9965
14692SOL    HW245518   2.284   0.373   7.775 -0.3609  0.9770  0.5810
14693SOL     OW45519   2.828   4.478  10.672  0.0942  0.4666 -0.0198
14693SOL    HW145520   2.912   4.455  10.712  0.0385 -0.9972 -0.6612
14693SOL    HW245521   2.777   4.397  10.676 -1.2426  1.2982  0.2353
14694SOL     OW45522   4.002   4.578   3.635 -0.2603 -0.2497 -0.1770
14694SOL    HW145523   4.073   4.515   3.624  0.1540  0.6063 -3.9136
14694SOL    HW245524   4.046   4.663   3.644 -0.8128 -0.0158  0.3993
14695SOL     OW45525   3.392   1.660   2.734 -0.5349 -0.3247  0.4472
14695SOL    HW145526   3.319   1.600   2.751 -0.2714 -0.1845  2.1848
14695SOL    HW245527   3.450   1.611   2.675 -0.6635 -1.5175  1.2775
14696SOL     OW45528   0.607   6.335   9.481 -0.2282 -0.2224  0.3254
14696SOL    HW145529   0.586   6.405   9.544 -1.4373 -0.7780  0.5742
14696SOL    HW245530   0.695   6.307   9.505 -0.1595  0.4720  0.9237
14697SOL     OW45531   6.764   3.531   2.627 -0.0846  0.1407  0.0022
14697SOL    HW145532   6.717   3.601   2.673 -1.8442 -2.8117  3.2483
14697SOL    HW245533   6.701   3.497   2.564  0.2530  0.5223 -0.5501
14698SOL     OW45534   3.603   2.160  10.339 -0.1245 -0.3294 -0.2887
14698SOL    HW145535   3.651   2.242  10.329  0.7684 -0.7503  0.3814
14698SOL    HW245536   3.575   2.137  10.251 -1.2910  1.2170 -0.3601
14699SOL     OW45537   0.553   5.396   2.014 -0.2959 -0.6853 -0.3563
14699SOL    HW145538   0.505   5.391   1.931  1.1624  2.1928 -1.4723
14699SOL    HW245539   0.643   5.374   1.991  0.4925  1.8985  0.0123
14700SOL     OW45540   4.376   0.368   4.493 -0.2602 -0.5360  0.1651
14700SOL    HW145541   4.298   0.409   4.530  0.6298  1.4971 -0.0590
14700SOL    HW245542   4.443   0.436   4.499  1.5639 -2.2751  0.5342
14701SOL     OW45543   0.449   1.110   0.721 -0.0179 -0.0525 -0.2479
14701SOL    HW145544   0.449   1.126   0.626  2.2145 -1.9157 -0.6387
14701SOL    HW245545   0.405   1.025   0.731  1.0057 -0.5480  0.2012
14702SOL     OW45546   6.630   0.779   4.669 -0.5868 -0.6336  0.0316
14702SOL    HW145547   6.586   0.836   4.733  0.3519  0.9240 -0.6518
14702SOL    HW245548   6.626   0.692   4.708 -0.1731  0.2419  2.1689
14703SOL     OW45549   6.886   0.959   3.942 -0.0449 -0.0106 -0.7611
14703SOL    HW145550   6.932   0.983   4.022  0.2824  1.5080 -1.3692
14703SOL    HW245551   6.933   0.882   3.910  0.7309  0.2423 -0.2543
14704SOL     OW45552   5.093   4.399   2.762 -0.0463  0.4398  0.1338
14704SOL    HW145553   5.076   4.476   2.817  3.3437 -1.3984  4.2853
14704SOL    HW245554   5.028   4.335   2.790  1.6279 -0.4677  2.1961
14705SOL     OW45555   5.554   0.879  11.244  0.7386  0.1431 -0.3327
14705SOL    HW145556   5.489   0.877  11.174  1.2904 -0.4106 -0.8426
14705SOL    HW245557   5.556   0.970  11.273 -1.8143 -0.1955  1.1795
14706SOL     OW45558   0.119   0.701   8.146 -0.0382  0.6630  0.3943
14706SOL    HW145559   0.172   0.665   8.217  0.2707  2.5790  1.2136
14706SOL    HW245560   0.052   0.754   8.191  0.5347  2.4067 -0.6902
14707SOL     OW45561   5.552   3.406   9.352  0.0597  0.3748  0.1618
14707SOL    HW145562   5.592   3.358   9.279  0.2091  1.3192 -0.4051
14707SOL    HW245563   5.458   3.403   9.334  0.1148  0.8266 -0.2203
14708SOL     OW45564   0.103   5.475   6.237  0.1904 -0.1354 -0.1520
14708SOL    HW145565   0.084   5.568   6.224  3.4961  0.2974 -3.4311
14708SOL    HW245566   0.063   5.455   6.322 -2.0538  3.7983 -0.0166
14709SOL     OW45567   7.669   6.898   2.981  0.0925 -0.3256  0.4547
14709SOL    HW145568   7.649   6.981   2.940 -0.6171 -0.6835  0.0550
14709SOL    HW245569   7.647   6.910   3.073 -0.9131 -0.3496  0.2307
14710SOL     OW45570   5.998   7.495   6.155 -0.2979  0.1297 -0.0811
14710SOL    HW145571   6.020   7.408   6.121 -2.4861 -0.9988  1.1647
14710SOL    HW245572   5.952   7.539   6.084  0.8111  0.2993 -0.7122
14711SOL     OW45573   4.605   4.182   2.821  0.3524  0.5678  0.2798
14711SOL    HW145574   4.596   4.214   2.911  1.0605 -0.4445  0.7345
14711SOL    HW245575   4.625   4.089   2.831 -2.9269 -0.4267 -0.9743
14712SOL     OW45576   5.838   4.657   9.010  0.1204 -0.1246 -0.8835
14712SOL    HW145577   5.828   4.712   8.933 -1.4088 -0.5657 -1.0340
14712SOL    HW245578   5.753   4.661   9.054  0.7618 -0.3833  0.4483
14713SOL     OW45579   2.874   6.537   8.787  0.2749 -0.1739  0.0549
14713SOL    HW145580   2.850   6.628   8.769  0.3738  0.3568  2.3487
14713SOL    HW245581   2.791   6.493   8.802  0.2088 -0.5628 -1.3075
14714SOL     OW45582   5.063   3.310   5.041 -0.3274 -0.1766 -0.0914
14714SOL    HW145583   5.092   3.255   5.113 -0.7780 -0.6324 -0.2534
14714SOL    HW245584   5.075   3.257   4.963 -0.6397 -0.0012 -0.2627
14715SOL     OW45585   5.979   7.078  10.034 -0.1709 -0.5769 -0.1009
14715SOL    HW145586   6.060   7.090   9.984 -0.5202  0.1935 -0.5052
14715SOL    HW245587   6.008   7.045  10.119  0.5406 -0.6406 -0.3602
14716SOL     OW45588   7.788   2.730   6.830  0.6959 -0.0184 -0.6427
14716SOL    HW145589   7.861   2.719   6.770  0.7982  0.4794 -0.6117
14716SOL    HW245590   7.757   2.819   6.815  0.7966  0.1538  0.1249
14717SOL     OW45591   0.192   2.679   4.006  0.2257  0.3477  0.4305
14717SOL    HW145592   0.155   2.593   4.028  0.9493  0.2977  1.5206
14717SOL    HW245593   0.258   2.695   4.074  3.3219 -0.2374 -2.1835
14718SOL     OW45594   6.032   5.845   5.407  0.0156  0.2012 -0.1798
14718SOL    HW145595   6.050   5.816   5.497  1.8610  1.2350 -0.1537
14718SOL    HW245596   6.089   5.921   5.395 -0.7061  0.5009 -2.0070
14719SOL     OW45597   5.521   7.186   6.455 -0.6612 -0.4749  0.4040
14719SOL    HW145598   5.434   7.211   6.486  0.2437  0.3428  2.4946
14719SOL    HW245599   5.562   7.269   6.429  0.1043 -0.6161  1.1394
14720SOL     OW45600   6.104   0.914   8.643  0.0882  0.2399  0.4249
14720SOL    HW145601   6.043   0.841   8.648 -0.0932  0.3649  0.1048
14720SOL    HW245602   6.053   0.990   8.670  0.7597 -0.0026  2.5081
14721SOL     OW45603   4.860   4.878   9.437 -0.3635  0.6591  0.3344
14721SOL    HW145604   4.912   4.933   9.379  0.3830  0.0183  0.3781
14721SOL    HW245605   4.843   4.799   9.386  0.2128  0.1344  0.9414
14722SOL     OW45606   2.480   2.879  12.132  0.1073  0.0069 -0.1416
14722SOL    HW145607   2.493   2.827  12.211  1.3952 -0.2545 -0.4960
14722SOL    HW245608   2.472   2.815  12.062  0.5261  0.2546 -0.4236
14723SOL     OW45609   4.539   3.374   1.420 -0.1728 -0.4545  0.3007
14723SOL    HW145610   4.603   3.422   1.368 -0.0447 -0.9972 -0.0517
14723SOL    HW245611   4.566   3.283   1.412 -1.2444 -0.7351 -0.2046
14724SOL     OW45612   6.421   2.638  12.311 -0.4149 -0.1693  0.5756
14724SOL    HW145613   6.413   2.559  12.259 -0.2146  0.5887 -0.6358
14724SOL    HW245614   6.462   2.609  12.393 -0.6247 -1.3519  0.2794
14725SOL     OW45615   5.504   6.921  11.337  0.0147 -0.0918 -0.0375
14725SOL    HW145616   5.493   6.834  11.375 -0.3951 -0.4863 -1.0151
14725SOL    HW245617   5.573   6.962  11.389  0.1497 -0.9695  0.4877
14726SOL     OW45618   1.424   7.236  12.100 -0.3094 -0.2450  0.2664
14726SOL    HW145619   1.472   7.197  12.173 -1.4306  1.1392  1.8259
14726SOL    HW245620   1.380   7.161  12.058  0.7342 -1.1244  0.6942
14727SOL     OW45621   4.663   0.960   7.771  0.7094 -0.4042  0.4325
14727SOL    HW145622   4.631   0.884   7.820  0.5903 -0.4960  0.2132
14727SOL    HW245623   4.685   1.025   7.838 -0.4343 -0.1358  0.5562
14728SOL     OW45624   5.488   0.346   9.096 -0.1603  0.0551 -0.1631
14728SOL    HW145625   5.494   0.386   9.010 -0.7308 -1.0830 -0.7617
14728SOL    HW245626   5.434   0.268   9.083  0.6055 -0.7130  1.0106
14729SOL     OW45627   3.719   2.103   8.133  0.2112 -0.4252 -0.1509
14729SOL    HW145628   3.685   2.183   8.092 -0.4823 -0.5277  0.2109
14729SOL    HW245629   3.712   2.120   8.227  0.3274 -0.8060 -0.0744
14730SOL     OW45630   3.793   0.625   2.686 -0.1250  0.4545  0.1699
14730SOL    HW145631   3.873   0.591   2.647 -0.9941 -0.3088 -1.0195
14730SOL    HW245632   3.809   0.622   2.781  1.6206  1.3153 -0.0790
14731SOL     OW45633   0.212   1.361   4.286 -0.6247  0.4077  0.1695
14731SOL    HW145634   0.133   1.312   4.312 -1.7742  0.4377 -2.8852
14731SOL    HW245635   0.253   1.306   4.220 -0.0492  2.0001 -0.8478
14732SOL     OW45636   2.152   0.430  11.682  0.8150 -0.1078 -0.3141
14732SOL    HW145637   2.089   0.500  11.669  1.3886  0.7109  1.0321
14732SOL    HW245638   2.205   0.429  11.602 -0.2180 -0.1073 -1.0086
14733SOL     OW45639   0.782   1.060  11.857  0.4306  0.2098  0.5651
14733SOL    HW145640   0.734   0.979  11.838 -2.5532  1.3087  2.7010
14733SOL    HW245641   0.837   1.038  11.932  0.7828 -0.1942  0.1955
14734SOL     OW45642   7.261   6.475   0.752  0.6422 -0.1848  0.0564
14734SOL    HW145643   7.188   6.428   0.793  1.0046  0.6016  1.7031
14734SOL    HW245644   7.251   6.566   0.781  1.7532  0.1234 -0.4476
14735SOL     OW45645   1.678   0.673   3.560  0.0749 -0.1859 -0.1127
14735SOL    HW145646   1.610   0.626   3.512  2.5210 -1.8317 -2.2507
14735SOL    HW245647   1.654   0.663   3.652 -1.8133 -1.8934 -0.7125
14736SOL     OW45648   6.550   4.378   1.573 -0.2493  0.0053 -0.0498
14736SOL    HW145649   6.571   4.409   1.661 -0.0918 -0.1502 -0.0328
14736SOL    HW245650   6.609   4.304   1.559 -1.3321 -0.9492  0.3068
14737SOL     OW45651   5.335   6.042  11.107  0.4513 -0.2465 -0.4163
14737SOL    HW145652   5.287   6.039  11.025  0.7206  3.9136 -0.9484
14737SOL    HW245653   5.395   6.116  11.097  0.3968  0.5480  3.5100
14738SOL     OW45654   6.649   7.422   2.702 -0.9257  0.6076  0.2854
14738SOL    HW145655   6.554   7.411   2.715 -0.5698 -2.4726  1.0413
14738SOL    HW245656   6.684   7.432   2.791 -0.4331  0.7685  0.0775
14739SOL     OW45657   1.248   2.037   8.631 -0.2211  0.1476 -0.1082
14739SOL    HW145658   1.248   1.950   8.671  1.7515 -0.4027 -1.1819
14739SOL    HW245659   1.315   2.085   8.679 -0.8585  0.9030  0.0484
14740SOL     OW45660   7.392   6.143   8.828 -0.3516 -0.8473 -0.1100
14740SOL    HW145661   7.482   6.116   8.847  0.3156  2.0279  1.4156
14740SOL    HW245662   7.363   6.189   8.907 -1.9147  1.1849 -1.7222
14741SOL     OW45663   1.217   5.922   3.124 -0.2437  0.7950 -0.1778
14741SOL    HW145664   1.281   5.881   3.182  1.7335  1.5996 -1.6530
14741SOL    HW245665   1.184   5.851   3.070 -0.9499  0.2935  0.9021
14742SOL     OW45666   0.192   5.593   2.856 -0.1075  0.1584  0.1553
14742SOL    HW145667   0.257   5.556   2.796  0.8667  0.4459  1.0094
14742SOL    HW245668   0.136   5.518   2.879  0.9480 -0.4934  0.7042
14743SOL     OW45669   6.264   3.045   1.969 -0.7631  0.7007 -0.1134
14743SOL    HW145670   6.327   3.109   1.937  0.9467  0.0937  1.8519
14743SOL    HW245671   6.250   3.069   2.061 -0.7439 -1.2073  0.4214
14744SOL     OW45672   1.385   6.545   4.772 -0.0978  0.2263 -0.1468
14744SOL    HW145673   1.310   6.521   4.827 -0.5018 -1.4532 -1.3580
14744SOL    HW245674   1.381   6.640   4.767 -1.4404  0.2486  0.7746
14745SOL     OW45675   2.856   2.847   8.563  0.2526 -0.2877  0.4137
14745SOL    HW145676   2.904   2.769   8.591  1.2428 -0.2399 -1.0186
14745SOL    HW245677   2.803   2.817   8.489  1.6317  0.6238 -1.0052
14746SOL     OW45678   3.769   5.999   9.857 -0.5942 -0.1216  0.0129
14746SOL    HW145679   3.829   6.054   9.907  0.7673 -0.8323 -0.7867
14746SOL    HW245680   3.743   6.053   9.782  0.7986 -0.5590 -0.8102
14747SOL     OW45681   7.114   2.599   1.895 -0.1385 -0.4267 -0.0398
14747SOL    HW145682   7.081   2.523   1.847 -0.9796 -0.7868  1.0840
14747SOL    HW245683   7.169   2.562   1.964  0.5999  0.0653 -0.3542
14748SOL     OW45684   1.578   3.022  10.427  0.2029 -0.4077  0.3807
14748SOL    HW145685   1.652   2.966  10.449  0.3265  0.5040  2.5846
14748SOL    HW245686   1.598   3.106  10.468 -0.9847  0.5896 -0.9730
14749SOL     OW45687   5.767   5.265  12.375  0.4535 -0.1092 -0.0837
14749SOL    HW145688   5.758   5.354  12.343 -1.7500  0.1470  1.0067
14749SOL    HW245689   5.861   5.248  12.376  0.8199  1.2879 -2.6269
14750SOL     OW45690   0.043   7.133   9.796 -0.6321  0.4805  0.3805
14750SOL    HW145691   0.052   7.049   9.751 -0.8195  0.0053  1.2027
14750SOL    HW245692   0.005   7.110   9.881  0.0475  1.3062  0.9227
14751SOL     OW45693   6.795   1.777   0.398  0.0731  0.3663 -0.6320
14751SOL    HW145694   6.858   1.849   0.389  0.7153 -0.1743 -0.5274
14751SOL    HW245695   6.725   1.798   0.336  0.1927  1.1413 -0.5163
14752SOL     OW45696   5.728   4.456   9.338 -0.0427 -0.6493  0.0656
14752SOL    HW145697   5.676   4.417   9.409  0.3548 -0.8630  0.2471
14752SOL    HW245698   5.669   4.458   9.263 -0.0782 -1.6274  0.0459
14753SOL     OW45699   2.249   4.306   5.023  0.2017  0.4883  0.1265
14753SOL    HW145700   2.271   4.399   5.027  1.9509  0.1908 -1.1894
14753SOL    HW245701   2.204   4.296   4.939 -0.3636  0.2185  0.4597
14754SOL     OW45702   2.954   7.167   4.745  0.5878 -0.1151 -0.4276
14754SOL    HW145703   2.902   7.186   4.667  0.5396  2.0204  0.0571
14754SOL    HW245704   2.947   7.072   4.757 -2.0803 -0.0779 -1.1432
14755SOL     OW45705   6.404   7.013   2.811 -0.6246  0.0104 -0.0991
14755SOL    HW145706   6.414   7.066   2.732  1.1951  3.1954  2.0252
14755SOL    HW245707   6.462   6.939   2.798  0.5151  1.0667 -1.3409
14756SOL     OW45708   5.758   4.915   7.007  0.7820 -0.0832 -0.5411
14756SOL    HW145709   5.781   4.867   7.086  0.1619 -0.3251 -0.4996
14756SOL    HW245710   5.709   4.851   6.954 -0.6489  0.6945 -0.1908
14757SOL     OW45711   5.948   5.954   4.364 -0.0620 -0.6300 -0.0994
14757SOL    HW145712   5.865   5.914   4.339  0.0037 -0.4136 -0.6836
14757SOL    HW245713   5.952   5.944   4.459 -2.1187  1.9098  0.3678
14758SOL     OW45714   0.481   0.256   9.682  0.1589  0.3703 -0.0913
14758SOL    HW145715   0.538   0.214   9.618  0.7752 -1.1735  1.3889
14758SOL    HW245716   0.530   0.333   9.711 -0.3633  1.4036 -1.7912
14759SOL     OW45717   6.997   6.988   3.649 -0.0816 -0.1637  0.0221
14759SOL    HW145718   6.990   7.071   3.601  0.3310  0.1701  0.5315
14759SOL    HW245719   7.056   6.934   3.596  1.1450  0.5501  0.6044
14760SOL     OW45720   3.169   1.581  12.192  0.2297  0.3509  0.2891
14760SOL    HW145721   3.081   1.593  12.225 -0.0759  0.1895 -0.4457
14760SOL    HW245722   3.193   1.492  12.217 -0.1156  0.1229 -0.1786
14761SOL     OW45723   7.372   6.878   0.680  0.5474 -0.4534 -0.0751
14761SOL    HW145724   7.410   6.880   0.768 -2.9271 -1.2517  1.6478
14761SOL    HW245725   7.368   6.785   0.658 -2.7267 -0.7421  1.1248
14762SOL     OW45726   7.127   5.284  10.730  0.3071 -0.5021  0.4072
14762SOL    HW145727   7.089   5.342  10.796  0.2256 -1.3882  1.1611
14762SOL    HW245728   7.066   5.289  10.656  1.6610  2.4469 -0.6893
14763SOL     OW45729   0.153   1.603   2.638  0.5829 -0.2144  0.9994
14763SOL    HW145730   0.227   1.658   2.613  0.8127 -0.4237  1.2120
14763SOL    HW245731   0.192   1.533   2.690  0.2937 -0.5655  0.7486
14764SOL     OW45732   7.123   6.847  12.054  0.1923 -0.3111 -0.7067
14764SOL    HW145733   7.158   6.778  12.111  0.3926 -1.0921 -1.7332
14764SOL    HW245734   7.065   6.801  11.994  2.4423 -0.1004 -3.2214
14765SOL     OW45735   2.553   2.732   5.049  0.3641  0.5686 -0.0673
14765SOL    HW145736   2.509   2.671   4.990  0.4332  0.4012  0.0531
14765SOL    HW245737   2.611   2.783   4.993 -1.9610  2.7202 -0.7148
14766SOL     OW45738   2.165   7.451   1.111 -0.4643 -0.1883 -0.3350
14766SOL    HW145739   2.133   7.541   1.112  1.4346  0.5310  0.1090
14766SOL    HW245740   2.096   7.400   1.156 -0.4135  1.4828  1.7846
14767SOL     OW45741   7.411   2.217   3.666 -0.8235  0.0863  0.4745
14767SOL    HW145742   7.421   2.274   3.741  0.6368 -0.9829  1.1442
14767SOL    HW245743   7.501   2.200   3.636 -1.2841 -0.8918 -0.4319
14768SOL     OW45744   6.008   0.137  10.961  0.0322 -0.0099 -0.0794
14768SOL    HW145745   5.949   0.066  10.935 -0.5568  0.1666  0.7320
14768SOL    HW245746   6.054   0.160  10.880  0.8827 -1.8906 -0.1763
14769SOL     OW45747   6.356   3.632   7.857 -0.6707  0.5148  0.3054
14769SOL    HW145748   6.387   3.594   7.775 -1.0791  1.0557 -0.1133
14769SOL    HW245749   6.337   3.724   7.835  0.0612  0.8980  1.2221
14770SOL     OW45750   0.500   0.737  11.469  0.4091  0.4136 -0.2689
14770SOL    HW145751   0.554   0.763  11.544 -0.6605 -0.3945  0.8095
14770SOL    HW245752   0.553   0.761  11.392  1.4607  1.3927  0.7249
14771SOL     OW45753   5.962   1.923   4.226  0.3606 -0.1932  0.0771
14771SOL    HW145754   5.914   1.844   4.249 -0.3957  0.5450  1.1676
14771SOL    HW245755   6.050   1.908   4.260  0.0600 -0.3471  0.8163
14772SOL     OW45756   1.579   2.972   4.620 -0.2828  0.6170  0.1600
14772SOL    HW145757   1.624   2.956   4.537 -0.4065  0.2292  0.1649
14772SOL    HW245758   1.488   2.988   4.595 -0.4202  0.0088  0.2543
14773SOL     OW45759   0.221   0.941   8.673  0.1432  0.2561 -0.0916
14773SOL    HW145760   0.285   0.984   8.616  0.5484 -1.7247 -1.2056
14773SOL    HW245761   0.138   0.984   8.652  0.8328  1.8749  0.3309
14774SOL     OW45762   7.203   4.906   8.331  0.2063  0.0371  0.5529
14774SOL    HW145763   7.260   4.980   8.312 -1.6856  1.2604 -0.8137
14774SOL    HW245764   7.115   4.938   8.309 -0.8248 -2.2245  1.1022
14775SOL     OW45765   1.709   5.384   6.648  0.1226 -0.3159  0.6344
14775SOL    HW145766   1.659   5.432   6.582  0.3324  0.2603  0.8829
14775SOL    HW245767   1.761   5.452   6.692  0.3285 -0.7580  1.0784
14776SOL     OW45768   3.047   3.046   6.759 -0.0476  0.0842 -0.0326
14776SOL    HW145769   3.074   3.136   6.777 -0.2173 -0.1573  1.6104
14776SOL    HW245770   3.058   3.001   6.843  1.6133 -1.8505 -1.1952
14777SOL     OW45771   0.204   4.938   5.530 -0.3678 -0.2504 -0.3307
14777SOL    HW145772   0.292   4.909   5.557 -0.3950 -0.8293 -0.8534
14777SOL    HW245773   0.216   5.031   5.507 -0.7184  0.9336  3.5037
14778SOL     OW45774   4.211   2.003   7.033  0.2452  0.6717 -0.3132
14778SOL    HW145775   4.162   2.086   7.028  0.2985  0.6879 -0.5884
14778SOL    HW245776   4.271   2.007   6.959 -1.0764 -0.4574 -1.5010
14779SOL     OW45777   0.905   7.919   9.724 -0.2551  0.0874  0.1959
14779SOL    HW145778   0.855   7.915   9.806 -0.5649  3.5093  0.3183
14779SOL    HW245779   0.854   7.978   9.668  0.5579 -1.2239 -2.0641
14780SOL     OW45780   7.156   7.915   4.058 -0.2979  0.5296 -0.5904
14780SOL    HW145781   7.079   7.924   4.114 -0.0861 -1.0458  0.0085
14780SOL    HW245782   7.177   8.004   4.031 -3.3749  0.9166 -2.2143
14781SOL     OW45783   5.379   6.148  10.796  0.1139 -0.4266 -0.1921
14781SOL    HW145784   5.458   6.165  10.847 -0.1714 -1.6119  0.6893
14781SOL    HW245785   5.377   6.053  10.785 -1.7677 -0.5425  0.7833
14782SOL     OW45786   2.941   6.138   7.124  0.0891  0.1320 -0.3963
14782SOL    HW145787   2.961   6.138   7.217 -0.5301 -0.9044 -0.2534
14782SOL    HW245788   3.027   6.133   7.081  0.3516  0.1358  0.1195
14783SOL     OW45789   5.653   1.843   1.516 -0.0697 -0.3155 -0.2373
14783SOL    HW145790   5.613   1.807   1.594  1.7769  0.6715  1.2671
14783SOL    HW245791   5.590   1.828   1.446 -1.9692 -0.8576  1.5215
14784SOL     OW45792   5.501   2.077   2.551 -0.9051 -0.6201  0.7854
14784SOL    HW145793   5.414   2.044   2.571 -1.0766 -0.4913  0.2654
14784SOL    HW245794   5.515   2.055   2.459  0.4826 -2.5569  1.4080
14785SOL     OW45795   2.644   0.754   2.407 -0.2890  0.0371  0.6633
14785SOL    HW145796   2.618   0.812   2.335  1.2094 -2.4990 -2.1736
14785SOL    HW245797   2.720   0.798   2.446 -2.1971  2.3393  2.0648
14786SOL     OW45798   5.704   7.499   9.997  0.4079 -0.1287  0.0440
14786SOL    HW145799   5.706   7.499   9.901  1.1615 -1.4264  0.0312
14786SOL    HW245800   5.674   7.411  10.020  1.4645 -0.2601  0.9975
14787SOL     OW45801   4.300   6.038  10.593 -0.2480  0.3168  0.2965
14787SOL    HW145802   4.208   6.034  10.565 -1.2709  4.0592  2.4762
14787SOL    HW245803   4.344   6.082  10.520 -0.6788  0.6099  0.2055
14788SOL     OW45804   3.608   5.073   1.183 -0.3164 -0.3743  0.1486
14788SOL    HW145805   3.539   5.052   1.121 -0.5226  0.6924 -0.0051
14788SOL    HW245806   3.562   5.105   1.261 -0.0133  0.3760  0.0331
14789SOL     OW45807   6.528   0.309   9.547 -0.0050 -0.4243 -0.0496
14789SOL    HW145808   6.573   0.261   9.477 -1.7231  0.2490 -1.7114
14789SOL    HW245809   6.467   0.245   9.584  0.7590 -0.7205  0.7358
14790SOL     OW45810   3.738   5.917  11.340 -0.0981 -0.0349  0.1373
14790SOL    HW145811   3.702   5.886  11.257  0.4587 -1.7612  0.4888
14790SOL    HW245812   3.807   5.854  11.360 -0.6729 -0.0532  2.2399
14791SOL     OW45813   2.084   3.105   4.300  0.2377  0.1821  0.0554
14791SOL    HW145814   2.114   3.029   4.351 -0.1490 -1.7463 -2.3951
14791SOL    HW245815   2.157   3.167   4.305  0.1151  0.2505  3.0795
14792SOL     OW45816   6.448   5.118   4.118  0.0661  0.4258 -0.0930
14792SOL    HW145817   6.458   5.075   4.204  0.9116 -2.0780 -1.3478
14792SOL    HW245818   6.459   5.047   4.055 -2.0719  1.9132 -2.2804
14793SOL     OW45819   1.992   5.473   2.423  0.6531 -0.5086 -0.1093
14793SOL    HW145820   2.002   5.466   2.518  1.5231 -0.4409 -0.1877
14793SOL    HW245821   2.082   5.471   2.389  0.3635 -0.2672 -0.9130
14794SOL     OW45822   3.786   7.359  10.230 -0.6768 -0.0569 -0.3512
14794SOL    HW145823   3.815   7.400  10.149  0.7303 -0.3761 -0.0249
14794SOL    HW245824   3.849   7.387  10.296 -0.6328 -1.4023  0.2162
14795SOL     OW45825   6.719   4.494  12.322  0.2598 -0.2111 -0.1672
14795SOL    HW145826   6.659   4.526  12.390  0.5911 -1.3148  0.6882
14795SOL    HW245827   6.793   4.554  12.326 -0.4219  0.6901 -0.6803
14796SOL     OW45828   1.906   1.631   0.507  0.1450  0.0671  0.0396
14796SOL    HW145829   1.882   1.663   0.594 -0.1268 -1.1718  0.4258
14796SOL    HW245830   1.989   1.676   0.488  0.4384  0.0114  1.1236
14797SOL     OW45831   2.364   3.076   3.449  0.2877  0.3744 -0.2085
14797SOL    HW145832   2.347   3.171   3.451 -0.8178  0.1778  1.1657
14797SOL    HW245833   2.310   3.041   3.520 -1.2949 -1.6188 -2.2716
14798SOL     OW45834   1.309   3.512  11.653  0.5508  0.2891 -0.2530
14798SOL    HW145835   1.371   3.516  11.726  0.2809  3.5309 -0.0745
14798SOL    HW245836   1.234   3.464  11.687  1.5625 -0.7156  0.6310
14799SOL     OW45837   4.254   7.791   2.428 -0.0748 -0.4661  0.1461
14799SOL    HW145838   4.292   7.769   2.513  0.8915 -0.0415 -0.1604
14799SOL    HW245839   4.324   7.774   2.365 -0.8738 -1.0556 -0.6037
14800SOL     OW45840   5.250   0.132   0.955 -0.0670 -0.3024  0.2574
14800SOL    HW145841   5.295   0.195   0.899 -0.2798  0.7210  1.2029
14800SOL    HW245842   5.239   0.054   0.900  1.4301 -0.0200 -0.4986
14801SOL     OW45843   3.715   1.563   1.461  0.4314 -0.0806 -0.1707
14801SOL    HW145844   3.803   1.526   1.456 -0.7129 -3.0342 -0.2163
14801SOL    HW245845   3.695   1.589   1.371  0.8681 -0.3068 -0.3346
14802SOL     OW45846   3.486   6.089   4.725  0.4496 -0.6795  0.0586
14802SOL    HW145847   3.499   6.173   4.769  0.6156 -0.1176 -1.0291
14802SOL    HW245848   3.568   6.042   4.740  0.9769 -0.0189 -0.6288
14803SOL     OW45849   0.069   4.650   6.596 -0.3860  0.7082  0.1726
14803SOL    HW145850  -0.024   4.675   6.595 -0.6749 -0.3026 -0.3364
14803SOL    HW245851   0.105   4.689   6.517 -0.2989  1.3629  0.5310
14804SOL     OW45852   5.874   5.872   4.963  0.4954  0.2910  0.1222
14804SOL    HW145853   5.924   5.822   5.028 -0.7452 -0.7134  0.3607
14804SOL    HW245854   5.783   5.860   4.990 -0.0340  0.0267 -1.6681
14805SOL     OW45855   7.244   4.868   7.984 -0.0610 -0.4740  0.0926
14805SOL    HW145856   7.318   4.847   8.042 -0.1740  1.2323  0.9259
14805SOL    HW245857   7.226   4.787   7.938  0.7185 -1.6250  1.7140
14806SOL     OW45858   1.073   5.447   5.091 -0.7201 -0.5570 -0.4227
14806SOL    HW145859   1.088   5.353   5.089 -2.4793 -0.8544 -0.6780
14806SOL    HW245860   1.002   5.462   5.028 -0.4546  0.9440 -0.4151
14807SOL     OW45861   7.875   5.556   9.287 -0.1780 -0.3691  0.1351
14807SOL    HW145862   7.844   5.578   9.375 -1.9563 -1.6410 -0.1152
14807SOL    HW245863   7.952   5.501   9.303 -0.8914 -1.1716  0.9463
14808SOL     OW45864   5.027   4.845   4.130  0.0014  0.3067  0.2378
14808SOL    HW145865   4.937   4.879   4.132  0.2712  1.0818 -0.6490
14808SOL    HW245866   5.017   4.756   4.096 -0.5668 -0.1326  1.4543
14809SOL     OW45867   3.597   0.267   4.194 -0.0085  0.4455  0.3012
14809SOL    HW145868   3.593   0.226   4.108 -2.8057 -0.5023  0.7633
14809SOL    HW245869   3.601   0.360   4.176  0.3493  0.2216 -0.8497
14810SOL     OW45870   7.632   2.274   2.542  0.6017  0.2324  0.5002
14810SOL    HW145871   7.648   2.300   2.633 -0.0250 -0.4318  0.8083
14810SOL    HW245872   7.718   2.248   2.509  0.7741  0.1455  1.0121
14811SOL     OW45873   7.126   1.318   7.529  0.6430 -0.0167 -0.3036
14811SOL    HW145874   7.106   1.411   7.524 -0.7896 -0.3755 -2.6668
14811SOL    HW245875   7.221   1.313   7.523  0.7927  1.2767  0.5269
14812SOL     OW45876   7.734   0.837   2.645 -0.1833 -0.2699 -0.6496
14812SOL    HW145877   7.794   0.887   2.589  0.7186 -0.8048 -0.1779
14812SOL    HW245878   7.764   0.747   2.638 -1.2109 -0.6181 -0.7386
14813SOL     OW45879   2.873   7.096   9.398  0.1678 -0.5609  0.0452
14813SOL    HW145880   2.953   7.136   9.432 -0.7749 -0.3859  2.2523
14813SOL    HW245881   2.873   7.008   9.435 -0.8053 -0.4381  0.3638
14814SOL     OW45882   2.674   2.863  11.928 -0.1747 -0.2798 -0.0940
14814SOL    HW145883   2.630   2.869  12.013 -1.7351 -0.9081 -0.8079
14814SOL    HW245884   2.675   2.953  11.896  1.5135  0.1656  1.0648
14815SOL     OW45885   6.283   5.310   4.718  0.0721  0.4290 -0.5329
14815SOL    HW145886   6.195   5.347   4.722 -0.7872 -1.2419 -2.3716
14815SOL    HW245887   6.322   5.350   4.640  0.1439 -0.4044 -0.9365
14816SOL     OW45888   6.681   1.246   3.679  0.0418 -0.1504  0.1425
14816SOL    HW145889   6.657   1.162   3.720 -0.3779  0.2225  0.6650
14816SOL    HW245890   6.726   1.220   3.598  1.2985 -0.9021  1.0437
14817SOL     OW45891   0.690   6.202   0.915  0.3045  0.2952  0.2111
14817SOL    HW145892   0.680   6.210   0.820  1.3821  1.3342  0.1561
14817SOL    HW245893   0.723   6.113   0.929 -1.9162 -0.6575 -0.1629
14818SOL     OW45894   1.837   1.235   9.613 -0.3114 -0.4217 -0.3142
14818SOL    HW145895   1.887   1.161   9.648 -1.6112 -0.7664  0.9091
14818SOL    HW245896   1.750   1.225   9.651 -0.6969  1.4055 -0.6337
14819SOL     OW45897   3.766   6.393  11.254  0.1502 -0.6077  0.1276
14819SOL    HW145898   3.842   6.336  11.265 -0.1006 -1.1800 -0.9554
14819SOL    HW245899   3.795   6.458  11.189 -0.1905 -0.6503 -0.0659
14820SOL     OW45900   0.821   7.492  10.911  0.3788 -0.0841 -0.8475
14820SOL    HW145901   0.817   7.586  10.928  1.0089 -0.2056  0.0275
14820SOL    HW245902   0.732   7.470  10.882  0.0898  0.6937 -0.6037
14821SOL     OW45903   3.471   5.121  11.591 -0.1463  0.3829  0.3674
14821SOL    HW145904   3.556   5.099  11.628  0.2691  0.4867 -0.4897
14821SOL    HW245905   3.410   5.060  11.631  0.7155 -1.2503 -0.7054
14822SOL     OW45906   3.014   2.015   1.839 -0.5059 -0.4543  0.1565
14822SOL    HW145907   2.950   2.078   1.872 -1.0925 -0.6602 -0.5704
14822SOL    HW245908   2.965   1.935   1.826 -0.5799 -0.0773 -2.3023
14823SOL     OW45909   3.893   3.784   6.822  0.4926  0.2091  0.3863
14823SOL    HW145910   3.803   3.789   6.790 -0.3543 -0.5623  2.4787
14823SOL    HW245911   3.921   3.695   6.801  1.1487  0.7325 -1.0962
14824SOL     OW45912   4.683   5.729   4.314 -0.5429 -0.1507 -0.4517
14824SOL    HW145913   4.637   5.655   4.352 -0.2622 -0.9740 -1.6501
14824SOL    HW245914   4.751   5.752   4.378 -2.2023  0.7287  1.0775
14825SOL     OW45915   2.666   6.380   7.038 -0.5766 -0.5876  0.2457
14825SOL    HW145916   2.657   6.358   7.130 -2.2459 -0.8095  0.0560
14825SOL    HW245917   2.633   6.470   7.032 -0.5797 -0.6129 -0.1447
14826SOL     OW45918   7.214   0.599  12.245  0.3778 -0.2956  0.4194
14826SOL    HW145919   7.278   0.637  12.185  2.4831 -0.6188  2.3331
14826SOL    HW245920   7.211   0.506  12.219 -1.7151  0.2453 -1.6245
14827SOL     OW45921   6.167   5.082   9.996  0.2193  0.4673  0.3490
14827SOL    HW145922   6.160   5.025  10.072 -1.8680  1.9621  1.3769
14827SOL    HW245923   6.258   5.113   9.998  0.6443 -0.7446  1.2670
14828SOL     OW45924   3.836   6.814   5.007  0.3078 -0.1285 -0.5094
14828SOL    HW145925   3.789   6.736   5.035  0.5922  0.3058  1.2539
14828SOL    HW245926   3.772   6.885   5.015  0.3559 -0.0066 -1.1244
14829SOL     OW45927   0.179   6.272   5.762 -0.0452  0.3481  0.3409
14829SOL    HW145928   0.210   6.222   5.837  1.9009  0.9909  0.0139
14829SOL    HW245929   0.110   6.218   5.724  1.4113 -1.7104  0.4791
14830SOL     OW45930   0.888   3.330   9.815 -0.2743 -0.5783 -0.5363
14830SOL    HW145931   0.938   3.314   9.895 -0.8448 -0.1730 -0.0964
14830SOL    HW245932   0.890   3.424   9.803  1.6012 -0.7616 -2.1834
14831SOL     OW45933   6.858   5.890   3.832 -0.0083  0.1170  0.2553
14831SOL    HW145934   6.920   5.933   3.891  0.8274  0.6775 -1.0029
14831SOL    HW245935   6.783   5.950   3.829  0.5858  0.8523 -0.4218
14832SOL     OW45936   3.769   6.304   1.084 -0.2982  0.0354 -0.0866
14832SOL    HW145937   3.824   6.382   1.092 -0.6317  0.1586  1.2926
14832SOL    HW245938   3.814   6.238   1.137  1.2707 -1.5233 -3.1161
14833SOL     OW45939   1.730   2.413   4.728  0.9300  0.0771 -0.1115
14833SOL    HW145940   1.663   2.414   4.660  0.2178 -0.8700  0.5385
14833SOL    HW245941   1.680   2.425   4.810  1.4063 -1.6321  0.4720
14834SOL     OW45942   5.518   5.281   5.881 -0.2842 -0.5153  0.5324
14834SOL    HW145943   5.437   5.305   5.927 -1.4161  2.0675 -2.4835
14834SOL    HW245944   5.494   5.206   5.828 -0.8493  0.3740 -0.5155
14835SOL     OW45945   3.631   3.907  10.802  0.5619  0.3632  0.6364
14835SOL    HW145946   3.686   3.832  10.779 -0.1949 -0.0623  0.1734
14835SOL    HW245947   3.614   3.897  10.895 -0.1688 -0.4770  0.4203
14836SOL     OW45948   5.764   6.123   7.443 -0.4036 -0.1646 -0.5684
14836SOL    HW145949   5.711   6.141   7.365 -0.8531  0.4987 -0.1238
14836SOL    HW245950   5.834   6.188   7.440 -0.8966  0.4088  0.0044
14837SOL     OW45951   3.844   1.990  11.639  0.0837  0.6079 -0.5835
14837SOL    HW145952   3.847   2.044  11.718 -3.7412 -0.3034  0.3691
14837SOL    HW245953   3.824   2.051  11.568 -3.0995  0.7861  0.3149
14838SOL     OW45954   2.530   2.927   7.484  0.2073 -0.5932 -0.0202
14838SOL    HW145955   2.626   2.930   7.484  0.2218 -1.0438  0.0637
14838SOL    HW245956   2.506   2.895   7.571  0.0160 -1.4330 -0.3695
14839SOL     OW45957   2.488   1.289   6.191 -0.1009 -1.0490  0.1666
14839SOL    HW145958   2.560   1.343   6.158  0.4296 -2.7169 -1.5712
14839SOL    HW245959   2.443   1.346   6.253  0.3356  1.4868 -1.6465
14840SOL     OW45960   4.713   2.977   4.415 -0.3518  0.0274  0.5061
14840SOL    HW145961   4.664   2.921   4.354  0.0608  1.1605 -0.9316
14840SOL    HW245962   4.647   3.008   4.476 -0.7453 -1.2984  0.7966
14841SOL     OW45963   0.277   0.477   4.803 -0.2677 -0.1808 -0.2202
14841SOL    HW145964   0.372   0.467   4.792 -0.2667  1.1880 -1.7828
14841SOL    HW245965   0.239   0.410   4.747 -0.2493 -1.1224  0.8625
14842SOL     OW45966   3.833   0.747   9.267 -0.4552  0.4795  0.1071
14842SOL    HW145967   3.741   0.758   9.244 -0.1554  0.5216 -1.1451
14842SOL    HW245968   3.881   0.774   9.189  0.6126  0.1433  0.6239
14843SOL     OW45969   2.473   4.966   1.266 -0.0971  0.0173 -0.7951
14843SOL    HW145970   2.429   4.902   1.323 -0.1287 -0.1014 -0.9521
14843SOL    HW245971   2.419   5.045   1.274  0.2464  0.2003 -0.1751
14844SOL     OW45972   1.292   5.038   2.963  0.2791  0.0365  0.2950
14844SOL    HW145973   1.326   5.122   2.992  1.4008 -0.0290 -0.7681
14844SOL    HW245974   1.368   4.980   2.962  0.0613 -0.2866 -1.5114
14845SOL     OW45975   2.686   2.212   9.706  0.3710  0.7020  0.2231
14845SOL    HW145976   2.598   2.248   9.690 -0.3921 -1.0523  0.2726
14845SOL    HW245977   2.708   2.243   9.794  0.1540  1.7909 -0.0817
14846SOL     OW45978   3.580   5.696   4.380 -0.5957  0.2337  0.2260
14846SOL    HW145979   3.561   5.686   4.287 -3.0411  1.3811  0.5321
14846SOL    HW245980   3.589   5.790   4.393  0.4165  0.0396  1.0416
14847SOL     OW45981   1.490   4.448   7.761 -0.0592 -0.2545  0.2252
14847SOL    HW145982   1.402   4.411   7.755  0.2741 -1.2954  1.4386
14847SOL    HW245983   1.504   4.490   7.676 -1.0784 -1.5447 -0.6131
14848SOL     OW45984   4.172   4.701   0.938 -0.2206  0.0093  0.1355
14848SOL    HW145985   4.233   4.651   0.993 -1.5393 -2.4691 -0.4888
14848SOL    HW245986   4.116   4.747   1.001  1.4585  1.3820  0.7219
14849SOL     OW45987   4.065   7.814   7.141  0.3339  1.0625  0.6671
14849SOL    HW145988   4.127   7.867   7.091 -0.9622  1.2942 -0.7504
14849SOL    HW245989   3.998   7.875   7.170 -0.2805  0.4905  0.4760
14850SOL     OW45990   2.085   0.250  10.164 -0.4068  0.3274 -0.1409
14850SOL    HW145991   2.137   0.289  10.234  0.8819 -0.2226 -0.7716
14850SOL    HW245992   2.122   0.285  10.083 -0.1917 -1.0054 -0.6495
14851SOL     OW45993   7.437   2.955   1.263  0.1750  0.6609  0.1218
14851SOL    HW145994   7.371   2.925   1.200 -0.0796  1.6411 -0.0901
14851SOL    HW245995   7.512   2.978   1.210  1.1709 -1.5416  0.4411
14852SOL     OW45996   2.014   2.547   2.303 -0.3850  0.6797  0.5625
14852SOL    HW145997   2.015   2.635   2.266 -0.8953 -0.8868 -3.6497
14852SOL    HW245998   2.094   2.541   2.355  1.4984  2.5828 -1.9030
14853SOL     OW45999   3.646   5.855   8.498  0.0250 -0.5627  0.3110
14853SOL    HW146000   3.733   5.892   8.511 -0.6087  0.1062  3.5248
14853SOL    HW246001   3.655   5.763   8.523 -0.0932 -0.6081  0.1880
14854SOL     OW46002   4.551   0.329   6.149  0.3768 -0.2274  0.3927
14854SOL    HW146003   4.460   0.319   6.120  0.2208 -1.2728  1.1502
14854SOL    HW246004   4.556   0.274   6.228  2.1535 -1.7511 -0.7039
14855SOL     OW46005   4.607   2.877   5.072  0.2493  0.1103 -0.1779
14855SOL    HW146006   4.626   2.969   5.088 -3.3213  0.8559  0.5018
14855SOL    HW246007   4.628   2.834   5.155 -1.4283  0.9901  0.7526
14856SOL     OW46008   3.004   3.186   9.502  0.1034 -0.0253  0.2925
14856SOL    HW146009   2.910   3.175   9.488  0.3202 -1.5617 -0.1026
14856SOL    HW246010   3.020   3.149   9.589  0.4213 -0.2896  0.1257
14857SOL     OW46011   2.438   0.550   1.397  0.4155 -0.4474 -0.0018
14857SOL    HW146012   2.376   0.623   1.408  0.1564 -0.6623 -0.0094
14857SOL    HW246013   2.445   0.539   1.302  0.1111 -0.7140  0.0020
14858SOL     OW46014   0.379   6.817  12.033  0.0842 -0.1009  0.4357
14858SOL    HW146015   0.427   6.890  11.994 -0.4993  0.1775  0.2244
14858SOL    HW246016   0.446   6.766  12.079  0.5989  0.2028  0.0352
14859SOL     OW46017   2.039   4.825   4.183 -0.4233 -0.6753  0.0030
14859SOL    HW146018   2.016   4.749   4.237 -2.3715  0.2599  0.5624
14859SOL    HW246019   1.980   4.894   4.211  0.6801  0.8127 -1.1355
14860SOL     OW46020   1.000   2.772   4.176 -0.4553 -0.1871 -0.6480
14860SOL    HW146021   0.944   2.846   4.201 -0.5375  0.6865 -3.1862
14860SOL    HW246022   1.080   2.812   4.142  1.0460 -1.3919  1.2229
14861SOL     OW46023   5.486   3.927   5.488 -0.3121 -0.2553 -0.4075
14861SOL    HW146024   5.506   3.917   5.581 -0.5622  0.3445 -0.2809
14861SOL    HW246025   5.551   3.874   5.443 -0.9030 -1.5019  0.1570
14862SOL     OW46026   2.146   7.557  10.538 -0.0264  0.2134 -0.3124
14862SOL    HW146027   2.207   7.564  10.612 -1.7601  0.5473  1.1642
14862SOL    HW246028   2.063   7.589  10.573 -1.7554 -2.7168 -1.3688
14863SOL     OW46029   3.324   5.123   6.890  0.3068 -0.3810 -0.0333
14863SOL    HW146030   3.409   5.154   6.858 -0.0524 -0.8898 -1.5694
14863SOL    HW246031   3.259   5.173   6.840 -0.2991 -0.5234  0.5885
14864SOL     OW46032   2.751   7.486   8.589 -0.3011 -0.0327 -0.2156
14864SOL    HW146033   2.715   7.403   8.617 -0.4244 -0.2841 -1.0809
14864SOL    HW246034   2.675   7.536   8.558 -0.5263  1.1903  2.1243
14865SOL     OW46035   0.222   0.821   7.069  0.5527  0.0136  0.5690
14865SOL    HW146036   0.262   0.904   7.096  3.5578 -1.0200 -0.2194
14865SOL    HW246037   0.242   0.761   7.140 -0.0451 -0.4647  0.3391
14866SOL     OW46038   0.729   5.873   0.698 -0.1346  0.3035  0.7790
14866SOL    HW146039   0.795   5.806   0.682 -0.5909  0.2373 -1.0011
14866SOL    HW246040   0.668   5.832   0.759 -1.0726 -1.4177 -1.1913
14867SOL     OW46041   1.943   1.203   3.016 -0.1445 -0.3720 -0.1306
14867SOL    HW146042   1.929   1.156   2.934 -2.0009  2.1510 -1.4175
14867SOL    HW246043   1.872   1.173   3.073  0.6764 -1.5410  0.3071
14868SOL     OW46044   0.537   7.856   9.695  0.1670 -0.2009  0.5178
14868SOL    HW146045   0.589   7.906   9.631  1.0356 -2.2451 -0.4742
14868SOL    HW246046   0.539   7.909   9.774  0.6677  1.5255 -0.5859
14869SOL     OW46047   7.243   5.317   9.966 -0.4951 -0.3489 -0.3445
14869SOL    HW146048   7.242   5.394   9.909 -0.3331 -0.6024 -0.7006
14869SOL    HW246049   7.229   5.243   9.906  1.5037 -0.7954 -0.3558
14870SOL     OW46050   7.251   5.920   9.302 -0.4162  0.5838 -0.0300
14870SOL    HW146051   7.267   5.826   9.300  0.2800  0.6898  0.3633
14870SOL    HW246052   7.173   5.929   9.358 -0.0179  0.2996  0.5848
14871SOL     OW46053   7.128   1.138   5.277  0.1871  0.0655 -0.3486
14871SOL    HW146054   7.133   1.145   5.372  2.7553  2.4186 -0.5347
14871SOL    HW246055   7.097   1.224   5.248  1.1547 -0.0010 -1.6764
14872SOL     OW46056   2.003   5.787   6.325  0.2931 -0.6093 -0.0653
14872SOL    HW146057   2.022   5.745   6.242  1.6036  0.0561 -0.1288
14872SOL    HW246058   2.084   5.780   6.375 -0.0009  0.3022  0.5709
14873SOL     OW46059   7.229   7.387   3.228 -0.0471 -0.1326 -0.2139
14873SOL    HW146060   7.266   7.337   3.300 -0.2538  0.3649  0.2445
14873SOL    HW246061   7.175   7.323   3.180  1.4775 -0.8895 -0.9771
14874SOL     OW46062   2.686   5.287   2.316  0.1765 -0.7386  0.0659
14874SOL    HW146063   2.634   5.289   2.397 -0.0237 -0.6477 -0.0643
14874SOL    HW246064   2.767   5.331   2.339  0.5004 -1.5261  0.4813
14875SOL     OW46065   3.578   7.320   9.733 -0.4490 -0.7468 -0.2879
14875SOL    HW146066   3.492   7.331   9.773 -0.7984  0.3993 -1.2955
14875SOL    HW246067   3.634   7.383   9.778 -0.6468 -0.0451 -0.9904
14876SOL     OW46068   2.027   5.262   6.538  0.5640 -0.0507  0.1219
14876SOL    HW146069   2.052   5.308   6.458  0.4526  4.5291  2.3468
14876SOL    HW246070   1.932   5.254   6.533  0.5946 -0.1374 -0.3484
14877SOL     OW46071   2.202   4.721   9.804 -0.1767 -0.2980  0.1985
14877SOL    HW146072   2.249   4.721   9.721 -0.8327  2.1026 -0.2598
14877SOL    HW246073   2.269   4.747   9.868 -0.2500  0.4753 -0.0277
14878SOL     OW46074   0.797   4.348   3.075  0.2911  0.1015  0.0375
14878SOL    HW146075   0.735   4.275   3.080 -1.1755  1.2652 -0.4748
14878SOL    HW246076   0.864   4.317   3.013 -1.8299  0.2005 -2.4591
14879SOL     OW46077   4.421   3.554   4.731  0.0505  1.0291  0.2613
14879SOL    HW146078   4.454   3.495   4.663  0.3149 -0.2907  1.4884
14879SOL    HW246079   4.364   3.615   4.684  0.8639  0.6691 -1.2549
14880SOL     OW46080   0.107   5.425   8.393  0.2618 -0.4721  0.1116
14880SOL    HW146081   0.134   5.456   8.480  0.4436 -0.4392  0.0422
14880SOL    HW246082   0.151   5.341   8.383  0.9149 -0.0817 -0.3048
14881SOL     OW46083   0.046   2.849   8.997  0.4151  0.0820  0.4548
14881SOL    HW146084  -0.047   2.867   9.005  0.6805  1.1104  1.5016
14881SOL    HW246085   0.051   2.766   8.950 -1.0214 -0.1168  0.6306
14882SOL     OW46086   5.251   5.926   6.315 -0.0389  0.4372 -0.0599
14882SOL    HW146087   5.342   5.896   6.316 -0.4237 -0.9252 -1.5026
14882SOL    HW246088   5.200   5.847   6.302 -1.4221  1.2366  0.3743
14883SOL     OW46089   5.091   3.546  10.963 -0.3367 -0.2818 -0.1797
14883SOL    HW146090   5.091   3.529  11.057 -0.0964 -0.6895 -0.2501
14883SOL    HW246091   5.160   3.490  10.929  1.2893  1.6665 -0.2754
14884SOL     OW46092   2.895   5.585   8.789 -0.3191 -0.2365 -0.0877
14884SOL    HW146093   2.951   5.557   8.861  0.0903 -0.6933 -0.5773
14884SOL    HW246094   2.826   5.637   8.831  0.0937 -0.2304  0.5905
14885SOL     OW46095   4.332   3.419   4.950 -0.1936  0.2914 -0.4202
14885SOL    HW146096   4.365   3.461   4.870  1.1454  0.6445  0.2878
14885SOL    HW246097   4.237   3.420   4.940 -0.0691  0.6062 -1.8635
14886SOL     OW46098   4.686   2.367   6.092 -0.0103  0.0452 -0.8107
14886SOL    HW146099   4.749   2.319   6.038  0.6970  0.8669 -0.7318
14886SOL    HW246100   4.737   2.400   6.165  0.3496  3.7122 -2.5107
14887SOL     OW46101   6.651   2.492   4.835 -0.2764  0.0536 -0.1020
14887SOL    HW146102   6.649   2.471   4.928  2.3293 -2.2245 -0.3915
14887SOL    HW246103   6.649   2.587   4.831  0.5469  0.2432  2.3603
14888SOL     OW46104   3.346   6.047  10.951 -0.3551  0.1564  0.2458
14888SOL    HW146105   3.398   5.998  10.887 -0.5263  0.0857  0.1615
14888SOL    HW246106   3.257   6.047  10.915 -0.2879  0.8295  0.0770
14889SOL     OW46107   1.379   2.853   0.957 -0.2016  0.1210 -0.0859
14889SOL    HW146108   1.329   2.802   1.020 -0.8761  0.0851 -0.6375
14889SOL    HW246109   1.456   2.799   0.937 -0.7567 -0.5504 -0.4361
14890SOL     OW46110   6.581   0.192   6.356 -0.2254 -0.3815 -0.6156
14890SOL    HW146111   6.585   0.280   6.319  1.4970  0.0253  0.4242
14890SOL    HW246112   6.550   0.204   6.446 -2.5051 -1.1576 -1.2262
14891SOL     OW46113   7.058   6.123   1.015  0.0044  0.0065  0.0109
14891SOL    HW146114   7.051   6.198   1.074  0.5462  0.1885 -0.1560
14891SOL    HW246115   7.002   6.057   1.054 -0.5219  0.5144  0.1371
14892SOL     OW46116   4.057   6.966   7.192 -0.0010 -0.3107 -0.3184
14892SOL    HW146117   4.080   6.979   7.099  0.4737 -0.4648 -0.2285
14892SOL    HW246118   4.060   6.871   7.204  0.8477 -0.2473  0.0698
14893SOL     OW46119   4.015   0.712   1.343  0.1394  0.0778  0.3915
14893SOL    HW146120   4.003   0.749   1.256  0.4732  0.0493  0.3316
14893SOL    HW246121   3.940   0.745   1.394  0.3639  0.7378  0.3029
14894SOL     OW46122   2.849   3.655   9.072 -0.3719  0.0366 -0.3012
14894SOL    HW146123   2.797   3.601   9.132  0.8984  0.0424  0.8295
14894SOL    HW246124   2.841   3.610   8.987  0.2101 -1.6404  0.4940
14895SOL     OW46125   1.201   2.591   0.493  0.2210  0.4391 -0.0323
14895SOL    HW146126   1.222   2.512   0.443  0.8894 -0.4332  1.5614
14895SOL    HW246127   1.268   2.654   0.467  1.2580 -0.3770  0.5892
14896SOL     OW46128   0.624   6.621   2.855  0.1497  0.4689 -0.1692
14896SOL    HW146129   0.602   6.682   2.785 -1.9673 -0.1480 -0.1189
14896SOL    HW246130   0.574   6.653   2.930  0.1340 -0.5228  0.2482
14897SOL     OW46131   4.216   5.105   7.391 -0.0181 -0.4397 -0.0455
14897SOL    HW146132   4.278   5.036   7.411  0.5752  0.5264  1.5972
14897SOL    HW246133   4.132   5.060   7.384  0.1151 -1.2180  2.3761
14898SOL     OW46134   4.001   1.591   2.572 -0.6386 -0.0464 -0.2436
14898SOL    HW146135   4.052   1.670   2.557  1.1271 -0.6480  2.0798
14898SOL    HW246136   3.956   1.606   2.655 -1.9429 -0.7074 -0.7977
14899SOL     OW46137   5.304   5.638   2.922 -0.1512  0.4182  0.5997
14899SOL    HW146138   5.343   5.561   2.881 -2.6519 -0.5271 -0.1914
14899SOL    HW246139   5.277   5.608   3.009  0.2283  0.8577  0.8731
14900SOL     OW46140   6.913   6.046   3.040 -0.2110  0.2822  0.2597
14900SOL    HW146141   6.928   6.005   2.954 -0.5723 -1.4154  0.9662
14900SOL    HW246142   6.844   5.993   3.080 -0.1395  1.1344  1.5497
14901SOL     OW46143   6.957   4.927   5.809 -0.1713  0.3135  1.0064
14901SOL    HW146144   6.972   4.889   5.896  0.0577 -0.5963  0.5845
14901SOL    HW246145   7.040   4.969   5.786 -0.1837  0.4246  1.1653
14902SOL     OW46146   7.427   7.841   3.666  0.0641 -0.1226 -0.6025
14902SOL    HW146147   7.428   7.873   3.756  0.0900 -2.3640  0.2815
14902SOL    HW246148   7.377   7.906   3.618  2.7870  2.8535  0.2725
14903SOL     OW46149   0.238   4.961   9.042  0.0477  0.4720 -0.3451
14903SOL    HW146150   0.296   5.023   8.999  0.2207 -0.1594 -1.0383
14903SOL    HW246151   0.241   4.883   8.987 -1.6765  0.5154 -0.5791
14904SOL     OW46152   7.670   3.845   0.192 -0.1581  0.0006 -0.5512
14904SOL    HW146153   7.640   3.764   0.234 -1.0122  0.2240 -0.7222
14904SOL    HW246154   7.617   3.914   0.231  0.6956  0.5192 -0.2729
14905SOL     OW46155   7.724   6.492   1.591  0.1357 -0.5196  0.2917
14905SOL    HW146156   7.715   6.564   1.653  0.1267 -1.6436  1.6485
14905SOL    HW246157   7.635   6.455   1.585 -0.4775  1.1323 -2.4323
14906SOL     OW46158   2.496   7.245   5.472 -0.1656 -0.2293  0.2072
14906SOL    HW146159   2.535   7.223   5.557 -0.0025 -0.4768  0.0701
14906SOL    HW246160   2.475   7.160   5.433 -1.6767 -0.0981  0.6621
14907SOL     OW46161   4.198   2.503   2.892  0.2478 -0.1782  0.5026
14907SOL    HW146162   4.183   2.583   2.842  0.6977  0.1899  0.9519
14907SOL    HW246163   4.111   2.478   2.924  0.0963  0.0899  0.2999
14908SOL     OW46164   0.355   1.495   8.819  0.1739  0.5055  0.0500
14908SOL    HW146165   0.381   1.567   8.762  0.8418  0.2523  0.0263
14908SOL    HW246166   0.276   1.459   8.778  0.6349  0.3403 -0.7107
14909SOL     OW46167   1.514   2.057   2.863  0.1678  0.1560 -0.0272
14909SOL    HW146168   1.589   2.112   2.839  1.1461 -1.0047  0.2380
14909SOL    HW246169   1.473   2.034   2.780 -0.5281  1.6118 -0.1190
14910SOL     OW46170   3.307   0.519   8.230  0.8027 -0.0580 -0.9774
14910SOL    HW146171   3.229   0.464   8.233  0.2342  0.7848  0.1900
14910SOL    HW246172   3.275   0.606   8.204  1.3331  0.3002 -0.4732
14911SOL     OW46173   7.090   0.173   6.643 -0.2607 -0.0810  0.0397
14911SOL    HW146174   7.121   0.251   6.689 -1.2380  0.4635 -0.1885
14911SOL    HW246175   7.168   0.118   6.634  0.2025  0.3250  1.2723
14912SOL     OW46176   4.528   6.846   1.055 -0.0010 -0.4285 -0.0662
14912SOL    HW146177   4.516   6.881   1.144  0.9641  1.5038 -0.6483
14912SOL    HW246178   4.620   6.860   1.036 -0.3763  0.0028 -1.7121
14913SOL     OW46179   5.435   3.669   5.812 -0.4370  0.4635  0.4924
14913SOL    HW146180   5.339   3.659   5.813 -0.5512  1.3703 -0.3488
14913SOL    HW246181   5.464   3.614   5.739 -0.3498  0.4939  0.5043
14914SOL     OW46182   5.629   2.775   3.530 -0.1524  0.0017 -0.2480
14914SOL    HW146183   5.677   2.851   3.497 -1.8253  2.2372  2.0638
14914SOL    HW246184   5.542   2.783   3.492 -0.9830  0.5381  1.6367
14915SOL     OW46185   7.630   7.134   2.738 -0.2354 -0.0491 -0.7027
14915SOL    HW146186   7.686   7.205   2.707  0.9272 -0.2329  0.8406
14915SOL    HW246187   7.688   7.059   2.746 -0.1103  0.2511  2.8332
14916SOL     OW46188   6.500   2.919   3.347 -0.7549  0.5946 -0.4013
14916SOL    HW146189   6.457   2.884   3.425  0.6278 -0.6771 -0.1528
14916SOL    HW246190   6.492   3.014   3.354 -1.2016  0.4688  0.9596
14917SOL     OW46191   3.303   5.109   3.995  0.1005  0.1417  0.3146
14917SOL    HW146192   3.336   5.184   4.044  0.2202  0.6821 -0.5737
14917SOL    HW246193   3.381   5.065   3.961  0.0297  1.9724 -2.6098
14918SOL     OW46194   5.379   3.214   5.346  0.2112  0.6197  0.6546
14918SOL    HW146195   5.432   3.280   5.302 -0.4243 -0.2362 -1.5191
14918SOL    HW246196   5.289   3.234   5.321 -0.0836 -0.4580  0.7832
14919SOL     OW46197   4.580   2.710   6.229 -0.6244  0.0235  0.8620
14919SOL    HW146198   4.491   2.719   6.197 -0.7514  2.0866  1.6543
14919SOL    HW246199   4.575   2.734   6.322  0.8180  0.5813  0.8252
14920SOL     OW46200   4.793   6.566   8.552 -0.0787  0.1699  0.5619
14920SOL    HW146201   4.799   6.596   8.642 -2.1575 -0.3828  0.9364
14920SOL    HW246202   4.708   6.523   8.546  0.7416 -1.3592 -1.2188
14921SOL     OW46203   6.496   5.411   7.836  0.3298 -0.3897  0.0856
14921SOL    HW146204   6.552   5.424   7.759 -0.8977  0.0074 -0.7642
14921SOL    HW246205   6.490   5.498   7.876  1.5531 -0.7248  1.0958
14922SOL     OW46206   1.439   5.912   4.762 -0.1043  0.3590 -0.6960
14922SOL    HW146207   1.407   5.976   4.825 -1.6266  0.8713 -1.9109
14922SOL    HW246208   1.361   5.889   4.711  0.9935 -0.3334 -2.1125
14923SOL     OW46209   5.082   7.098  12.322 -0.0192  0.1935  0.2465
14923SOL    HW146210   5.055   7.175  12.272 -0.3097 -0.1542 -0.1460
14923SOL    HW246211   5.149   7.130  12.382  0.0080  0.7106 -0.0538
14924SOL     OW46212   1.622   4.566   3.960  0.1066 -0.1944 -0.0723
14924SOL    HW146213   1.660   4.496   4.013  0.8900 -0.5751 -1.0875
14924SOL    HW246214   1.569   4.617   4.021 -0.2350 -1.4931  0.7492
14925SOL     OW46215   4.859   7.167   2.597  0.2606 -0.0939 -0.3630
14925SOL    HW146216   4.888   7.213   2.518 -2.5623  1.2289 -0.7616
14925SOL    HW246217   4.877   7.229   2.668 -0.1098  0.0662 -0.4062
14926SOL     OW46218   2.558   1.882   6.052 -0.0185 -0.2150  0.0505
14926SOL    HW146219   2.649   1.898   6.028 -0.4474  2.5941  0.0023
14926SOL    HW246220   2.549   1.920   6.139 -0.5629 -2.8086  1.2167
14927SOL     OW46221   7.281   7.333   1.381  0.2313 -0.3132 -0.1080
14927SOL    HW146222   7.246   7.259   1.431  0.0416  0.0601  0.3116
14927SOL    HW246223   7.372   7.341   1.409 -0.0768  0.3541  0.7194
14928SOL     OW46224   6.630   2.457   8.581  0.3467  0.2404 -0.2826
14928SOL    HW146225   6.568   2.450   8.509  1.3042 -0.9085 -1.0241
14928SOL    HW246226   6.653   2.367   8.602  3.2074  0.6264 -1.3213
14929SOL     OW46227   3.340   5.796   5.767  0.8030 -0.4114 -0.0334
14929SOL    HW146228   3.358   5.888   5.748  1.6449 -1.2333 -4.3286
14929SOL    HW246229   3.419   5.765   5.811  0.0993  1.0031  2.4424
14930SOL     OW46230   5.083   7.465   0.816  0.0437 -0.6660 -0.4460
14930SOL    HW146231   5.090   7.544   0.761  1.9121  0.7071  1.5863
14930SOL    HW246232   5.164   7.417   0.799  0.7394 -0.1222  1.1828
14931SOL     OW46233   3.873   2.051   1.934 -0.0228  0.1954 -0.4017
14931SOL    HW146234   3.878   2.139   1.972 -2.6028  0.6836 -1.0414
14931SOL    HW246235   3.882   2.064   1.840  0.5595 -0.3685 -0.4360
14932SOL     OW46236   2.245   2.162   2.068  0.0426 -0.5696  0.1432
14932SOL    HW146237   2.160   2.192   2.098  0.1544 -0.0944 -0.0000
14932SOL    HW246238   2.308   2.203   2.128  0.3202  1.0255 -1.1710
14933SOL     OW46239   4.614   2.528   3.232  0.0702 -0.1218  0.6407
14933SOL    HW146240   4.522   2.553   3.237  0.5267  2.0585 -0.8157
14933SOL    HW246241   4.631   2.516   3.138  1.6331  1.0355  0.7406
14934SOL     OW46242   1.699   2.279   7.706 -0.6908 -0.2146  0.8933
14934SOL    HW146243   1.735   2.280   7.617 -0.1978  0.8171  1.0981
14934SOL    HW246244   1.605   2.292   7.693 -1.0414 -2.7330  0.3688
14935SOL     OW46245   7.118   2.760   0.840 -0.1109 -0.4224  0.2416
14935SOL    HW146246   7.066   2.834   0.808  1.1521  0.5244  0.3167
14935SOL    HW246247   7.118   2.697   0.767  0.0644  0.3223 -0.4202
14936SOL     OW46248   0.781   1.186   7.046  0.0960 -0.2630 -0.0773
14936SOL    HW146249   0.775   1.270   7.093  0.9892  0.0274 -0.4589
14936SOL    HW246250   0.845   1.202   6.977  0.7319 -1.4483  0.2202
14937SOL     OW46251   4.253   7.380   7.375  0.0050  0.4158  0.0138
14937SOL    HW146252   4.322   7.410   7.316  0.5187  0.4252  0.6116
14937SOL    HW246253   4.288   7.301   7.416 -1.4810 -1.2820 -1.8103
14938SOL     OW46254   7.918   3.153   2.475  0.3566  0.6144 -0.5062
14938SOL    HW146255   7.825   3.158   2.494  0.0328 -1.1065 -1.3959
14938SOL    HW246256   7.955   3.102   2.547  0.2193 -0.5105 -1.2098
14939SOL     OW46257   1.579   0.345   9.096  0.6542 -0.4543  0.3366
14939SOL    HW146258   1.515   0.281   9.067  0.5515  0.3739 -1.3993
14939SOL    HW246259   1.633   0.363   9.018  1.8061  0.2439  1.2491
14940SOL     OW46260   5.923   6.923   5.725 -0.2782  0.4059 -0.1953
14940SOL    HW146261   6.008   6.892   5.756 -1.0896 -1.2037  0.5309
14940SOL    HW246262   5.910   6.879   5.641 -2.2681 -3.0295  1.6860
14941SOL     OW46263   0.901   4.121   6.647 -0.4059 -0.8894  0.2739
14941SOL    HW146264   0.972   4.164   6.695 -1.4665  0.2979  0.8180
14941SOL    HW246265   0.936   4.034   6.626  0.1870 -1.4007  3.0307
14942SOL     OW46266   1.650   0.164   2.791  0.4409 -0.0142  0.6648
14942SOL    HW146267   1.665   0.070   2.802  0.6614 -0.1152 -0.3956
14942SOL    HW246268   1.669   0.180   2.699 -1.3934  0.7216  0.3724
14943SOL     OW46269   3.734   3.412   9.955 -0.0987 -0.3010 -0.1490
14943SOL    HW146270   3.695   3.325   9.960 -0.1513 -0.2991 -0.4726
14943SOL    HW246271   3.669   3.465   9.908 -0.0789 -0.0830  0.0701
14944SOL     OW46272   0.288   2.930   3.740 -0.2763  0.4774 -0.0620
14944SOL    HW146273   0.295   2.872   3.664 -1.4602  0.4506 -0.1678
14944SOL    HW246274   0.194   2.950   3.747  0.0675  2.1532  0.1448
14945SOL     OW46275   4.519   7.922   6.075 -0.5031  0.2192  0.3353
14945SOL    HW146276   4.489   7.857   6.012 -2.3764  2.0524 -0.7943
14945SOL    HW246277   4.576   7.980   6.024 -2.5684  2.1160  0.0172
14946SOL     OW46278   3.242   5.678   0.882 -0.1122  0.1143  0.0238
14946SOL    HW146279   3.333   5.674   0.851  0.0134  1.3298  0.2010
14946SOL    HW246280   3.241   5.625   0.962  0.2413 -0.5958 -0.4353
14947SOL     OW46281   6.962   2.603   0.033 -0.0365  0.0322 -0.1892
14947SOL    HW146282   7.014   2.651   0.096 -0.3489 -1.0662  0.9339
14947SOL    HW246283   6.879   2.651   0.029 -0.4505 -0.5247  1.1361
14948SOL     OW46284   6.265   3.342  11.014 -0.8232 -0.3841 -0.1975
14948SOL    HW146285   6.352   3.378  10.996 -0.7690  0.2840  1.2154
14948SOL    HW246286   6.271   3.250  10.986 -0.0542 -0.0517 -1.2196
14949SOL     OW46287   1.905   5.164   9.259 -0.0002 -0.4522 -0.8042
14949SOL    HW146288   1.892   5.249   9.301  0.3356 -1.0686  0.5939
14949SOL    HW246289   1.833   5.158   9.196  0.5446  1.2762 -1.6646
14950SOL     OW46290   4.706   7.106   7.418  0.2833  0.2889  0.1015
14950SOL    HW146291   4.649   7.182   7.429  0.6346  0.6492 -0.4880
14950SOL    HW246292   4.793   7.144   7.404  0.5571 -0.2367  0.3740
14951SOL     OW46293   2.117   7.437   2.345  0.3260  0.2734  0.0616
14951SOL    HW146294   2.046   7.443   2.282  0.2483  0.1795  0.1407
14951SOL    HW246295   2.090   7.369   2.407  0.7146 -0.1318 -0.2071
14952SOL     OW46296   0.469   3.278  12.050  0.4251 -0.1833  0.1421
14952SOL    HW146297   0.398   3.215  12.064 -0.8848  1.1859 -0.1187
14952SOL    HW246298   0.437   3.359  12.089  1.4145  0.7413 -0.9175
14953SOL     OW46299   0.518   5.225   6.808 -0.3912 -0.3064 -0.6603
14953SOL    HW146300   0.440   5.280   6.819 -0.7548 -0.7884 -0.8315
14953SOL    HW246301   0.526   5.215   6.713 -1.7013 -2.4974 -0.5993
14954SOL     OW46302   6.270   5.001   7.916 -0.1025  0.4432 -0.2961
14954SOL    HW146303   6.310   5.045   7.841 -0.2363 -0.4478 -0.9089
14954SOL    HW246304   6.249   5.072   7.977 -0.4358  1.2385 -1.3071
14955SOL     OW46305   2.053   3.768   4.723 -0.0973  1.2228  0.4440
14955SOL    HW146306   2.064   3.863   4.730  1.6108  1.0349  0.7335
14955SOL    HW246307   2.078   3.748   4.633 -0.4010  1.0444  0.3991
14956SOL     OW46308   3.546   3.196   1.551  0.0747  0.1603 -0.4456
14956SOL    HW146309   3.617   3.245   1.510  0.3539  0.7755  0.7104
14956SOL    HW246310   3.518   3.252   1.624  0.5807 -1.5202  1.1028
14957SOL     OW46311   0.823   2.371   6.766  0.1944  0.0469  0.3920
14957SOL    HW146312   0.864   2.355   6.851  0.8389  0.3797  0.1509
14957SOL    HW246313   0.766   2.447   6.781 -1.2082 -1.0872  1.0009
14958SOL     OW46314   7.076   3.144  11.689 -0.1019 -0.6476 -0.0004
14958SOL    HW146315   7.066   3.165  11.597  1.0417  0.0955  0.0218
14958SOL    HW246316   7.018   3.204  11.735 -0.2955 -0.6779 -0.2066
14959SOL     OW46317   6.516   4.363   9.821 -0.0679  0.4584  0.2946
14959SOL    HW146318   6.571   4.312   9.762  1.6254 -0.0117  2.1679
14959SOL    HW246319   6.440   4.307   9.837  1.9854 -1.9032  2.7110
14960SOL     OW46320   2.366   7.818   7.626  0.2846 -0.1975  0.4245
14960SOL    HW146321   2.387   7.810   7.719 -0.0720  1.0188  0.6285
14960SOL    HW246322   2.271   7.817   7.622  0.2402  1.5871  0.2919
14961SOL     OW46323   1.523   1.616   7.601  0.1727 -0.9238 -0.4712
14961SOL    HW146324   1.605   1.566   7.606  0.7392 -0.1382 -1.4190
14961SOL    HW246325   1.488   1.613   7.690  1.5333 -0.7902  0.0972
14962SOL     OW46326   1.034   6.649   0.024 -0.0905  0.4312  0.1756
14962SOL    HW146327   0.945   6.641   0.057 -0.7900 -0.7697 -1.8193
14962SOL    HW246328   1.032   6.726  -0.033 -0.2270 -0.3135 -0.8592
14963SOL     OW46329   6.360   2.712   3.090  0.2652  0.1955 -0.0675
14963SOL    HW146330   6.435   2.771   3.082  0.0975  0.5031  0.6338
14963SOL    HW246331   6.385   2.636   3.037  0.5729  0.7937 -0.8017
14964SOL     OW46332   5.666   5.979   9.941  0.2064 -0.1875 -0.8320
14964SOL    HW146333   5.651   5.998   9.848 -0.9595  1.1082 -0.4163
14964SOL    HW246334   5.685   6.065   9.979  0.2627 -0.6499  0.1960
14965SOL     OW46335   6.013   0.467   9.907 -0.2975 -0.2248  0.1753
14965SOL    HW146336   6.011   0.431   9.995  0.0078  2.7680  1.5531
14965SOL    HW246337   6.106   0.464   9.882 -0.0312  0.8823  0.9309
14966SOL     OW46338   6.159   3.937   0.412  0.2445 -0.5444  0.0762
14966SOL    HW146339   6.140   3.844   0.425 -0.8927 -0.3271  0.0604
14966SOL    HW246340   6.135   3.979   0.494 -0.5381 -0.0870 -0.3717
14967SOL     OW46341   2.935   1.052   2.915 -0.2296 -0.3851  1.1292
14967SOL    HW146342   2.890   0.987   2.969 -3.2381 -0.7472 -1.5195
14967SOL    HW246343   2.961   1.004   2.837 -1.0431  1.1729 -0.1631
14968SOL     OW46344   4.258   0.114   1.775 -0.3114 -0.3358  0.4023
14968SOL    HW146345   4.165   0.094   1.778 -0.2525 -0.5662  0.9738
14968SOL    HW246346   4.301   0.029   1.786 -0.0419 -0.1797  0.5793
14969SOL     OW46347   6.898   2.152   3.489  0.6431 -0.6060 -0.0844
14969SOL    HW146348   6.992   2.168   3.495  0.6758  0.2953 -2.0963
14969SOL    HW246349   6.868   2.150   3.580  2.6174 -1.0865  0.6041
14970SOL     OW46350   1.534   3.068   7.813 -0.1968 -0.4968  0.1562
14970SOL    HW146351   1.566   3.000   7.872  0.5158  0.7083  1.2135
14970SOL    HW246352   1.550   3.150   7.860 -0.7413  0.4301 -1.2070
14971SOL     OW46353   3.004   7.889  11.790 -0.0382 -0.2740 -0.0961
14971SOL    HW146354   3.016   7.815  11.849 -0.7933 -0.3977 -0.0982
14971SOL    HW246355   3.083   7.942  11.802 -0.0670 -0.4269  0.8367
14972SOL     OW46356   3.970   6.500   0.623 -0.0937  0.0959  0.2819
14972SOL    HW146357   3.932   6.553   0.693 -0.3673 -1.1916  1.1559
14972SOL    HW246358   4.024   6.435   0.669  0.0562 -0.5206 -0.7270
14973SOL     OW46359   6.364   6.533   6.982  0.1254  0.2286  0.0603
14973SOL    HW146360   6.374   6.510   6.890  0.9062 -1.5311  0.5530
14973SOL    HW246361   6.292   6.478   7.013 -0.5514  1.2613  0.3705
14974SOL     OW46362   0.112   0.178  10.587  0.2125 -0.2522  0.0734
14974SOL    HW146363   0.199   0.147  10.612  0.3615 -0.8281 -1.0788
14974SOL    HW246364   0.080   0.225  10.664  2.4035  1.8525 -0.1483
14975SOL     OW46365   2.976   1.068  11.189  0.3359  0.2914  0.3945
14975SOL    HW146366   2.939   1.142  11.237  1.0425 -0.6599  2.5420
14975SOL    HW246367   3.068   1.065  11.217  0.9644  0.0206 -1.5201
14976SOL     OW46368   6.488   3.938   9.996 -0.3446  0.5317 -0.7204
14976SOL    HW146369   6.423   3.893  10.050 -0.2503  0.5754 -0.5691
14976SOL    HW246370   6.439   4.004   9.948 -0.4162  0.5432 -0.6300
14977SOL     OW46371   3.208   7.530   1.763  0.1743  0.1017  1.2122
14977SOL    HW146372   3.183   7.622   1.768 -2.0975 -0.4673  1.4272
14977SOL    HW246373   3.144   7.491   1.703  1.2947 -1.2721  0.8643
14978SOL     OW46374   0.769   0.766   7.018 -0.0655 -0.3413  0.2441
14978SOL    HW146375   0.765   0.687   7.071  0.7538 -0.0721  0.7269
14978SOL    HW246376   0.715   0.747   6.941 -1.9446 -0.4623  1.5232
14979SOL     OW46377   2.810   4.814   6.765  0.0857  0.0832  0.2391
14979SOL    HW146378   2.862   4.894   6.765  1.4427 -0.7507  0.3933
14979SOL    HW246379   2.732   4.835   6.714 -0.4824  2.0193  1.7865
14980SOL     OW46380   3.554   4.368  10.897  0.1801 -0.0328 -0.3215
14980SOL    HW146381   3.578   4.416  10.818 -0.9112 -0.2237 -0.7867
14980SOL    HW246382   3.479   4.415  10.933  0.3531 -0.2378  0.3259
14981SOL     OW46383   0.822   4.011   2.184  0.2364  0.2506  0.5248
14981SOL    HW146384   0.907   3.984   2.151 -0.0802 -0.4787  0.2816
14981SOL    HW246385   0.798   4.086   2.130  0.4742  0.1117  0.2264
14982SOL     OW46386   2.861   7.478  11.160 -0.1236  0.0155 -0.1818
14982SOL    HW146387   2.918   7.505  11.232 -0.7859  1.9133 -0.3254
14982SOL    HW246388   2.830   7.391  11.186  0.2740  0.3204  1.4397
14983SOL     OW46389   2.382   6.789  10.741  0.0159 -0.0470  0.4802
14983SOL    HW146390   2.375   6.800  10.646  2.4978  0.1063  0.2405
14983SOL    HW246391   2.421   6.702  10.751  2.4589  1.0278  1.1323
14984SOL     OW46392   4.429   7.166   2.893  0.5564  0.3335  0.2993
14984SOL    HW146393   4.475   7.085   2.872 -0.5521 -0.0944 -0.6056
14984SOL    HW246394   4.381   7.146   2.973 -0.6349 -0.3363 -0.5355
14985SOL     OW46395   2.476   4.700  11.183 -0.2786  0.8485  0.0315
14985SOL    HW146396   2.559   4.690  11.230  0.1120  0.0287 -0.7865
14985SOL    HW246397   2.410   4.666  11.242  0.4780 -2.4629 -0.8559
14986SOL     OW46398   7.705   4.215   5.789  0.1962 -0.0144  0.2977
14986SOL    HW146399   7.630   4.249   5.836 -1.8571 -2.2734 -1.1081
14986SOL    HW246400   7.727   4.133   5.834  0.1416 -0.6688 -0.8339
14987SOL     OW46401   1.046   0.931   7.407  0.0196 -0.4829 -0.6800
14987SOL    HW146402   0.963   0.916   7.451  0.2204  0.4558  0.0531
14987SOL    HW246403   1.107   0.870   7.448  0.3735  0.8650  0.8923
14988SOL     OW46404   0.754   4.330   2.270  0.6562  0.1104  0.5083
14988SOL    HW146405   0.699   4.284   2.207 -1.5924  0.1942  2.2851
14988SOL    HW246406   0.831   4.274   2.280 -0.3721 -1.4545 -0.0122
14989SOL     OW46407   4.751   5.363   5.207 -0.1930  0.0288  0.6461
14989SOL    HW146408   4.834   5.315   5.206  0.4085  1.0292 -0.6061
14989SOL    HW246409   4.776   5.455   5.204 -1.3342  0.3389 -0.7638
14990SOL     OW46410   6.352   6.026  11.813 -0.1237 -0.2631  0.5535
14990SOL    HW146411   6.420   5.979  11.765 -0.9677  0.4980 -1.5106
14990SOL    HW246412   6.276   6.023  11.755 -0.9849  1.3264  1.5279
14991SOL     OW46413   3.718   6.484   6.563 -0.1928 -0.6608  0.1084
14991SOL    HW146414   3.680   6.567   6.535  0.8769 -0.2148 -0.0704
14991SOL    HW246415   3.665   6.418   6.519 -0.8438 -0.0774 -0.0185
14992SOL     OW46416   1.098   6.771   9.919 -0.2490  0.3488 -0.1723
14992SOL    HW146417   1.097   6.854   9.968  1.0384 -0.9532  2.2147
14992SOL    HW246418   1.186   6.767   9.881 -0.1237 -0.1536  0.1633
14993SOL     OW46419   7.364   7.693  10.250 -0.2370 -0.0596  0.0099
14993SOL    HW146420   7.409   7.778  10.246 -2.4660  1.1443 -0.7681
14993SOL    HW246421   7.342   7.683  10.342  2.6690 -1.3322  0.6865
14994SOL     OW46422   3.902   6.043   6.509 -0.7370 -0.1065  0.0459
14994SOL    HW146423   3.947   6.121   6.476 -0.2577 -0.0993  0.6892
14994SOL    HW246424   3.832   6.027   6.447  0.3313 -0.2790 -1.1663
14995SOL     OW46425   2.802   0.048   7.903  0.0755 -0.0571 -0.1105
14995SOL    HW146426   2.772   0.088   7.821 -0.4734 -1.2771 -0.5370
14995SOL    HW246427   2.737   0.074   7.968  1.3511  2.2287  0.3418
14996SOL     OW46428   2.858   1.797  10.253 -0.2303  0.7082  0.0229
14996SOL    HW146429   2.867   1.798  10.348 -0.7030 -1.3047  0.1470
14996SOL    HW246430   2.781   1.742  10.238  0.1424  0.5850 -1.5463
14997SOL     OW46431   2.650   6.717   8.282  0.0967 -0.2773  0.1378
14997SOL    HW146432   2.607   6.788   8.234 -0.0504 -0.7059 -0.3721
14997SOL    HW246433   2.668   6.651   8.215  0.4041 -0.6389  0.5772
14998SOL     OW46434   7.234   6.045   5.101 -0.5278  0.0128  0.4371
14998SOL    HW146435   7.304   5.981   5.110  0.1196  0.4270 -1.2468
14998SOL    HW246436   7.212   6.070   5.191  1.2586 -0.3520  1.0120
14999SOL     OW46437   4.465   4.569  11.080 -0.8685  0.2420 -0.4379
14999SOL    HW146438   4.530   4.616  11.028  1.1760 -0.3434  1.4198
14999SOL    HW246439   4.416   4.637  11.125 -0.2609  0.6637 -0.4082
15000SOL     OW46440   2.622   5.624   5.037  0.3882  0.1959 -0.1937
15000SOL    HW146441   2.606   5.675   5.116  0.6447 -0.0195 -0.0047
15000SOL    HW246442   2.545   5.567   5.030  0.9470 -0.6716  0.5891
15001SOL     OW46443   2.308   2.155   0.520 -0.3055 -0.2476  0.3549
15001SOL    HW146444   2.292   2.082   0.580 -1.6377 -0.3705 -0.1152
15001SOL    HW246445   2.272   2.126   0.437 -0.3867  0.7430  0.0291
15002SOL     OW46446   3.467   4.855   9.510  0.6372 -0.3690  0.1468
15002SOL    HW146447   3.459   4.815   9.423 -2.2735 -0.2556  0.2391
15002SOL    HW246448   3.505   4.942   9.493 -0.7638  0.0329 -1.2010
15003SOL     OW46449   2.565   6.652  10.971  0.0119 -0.0496  0.3621
15003SOL    HW146450   2.553   6.721  11.037  0.8631 -0.8503  1.3823
15003SOL    HW246451   2.512   6.579  11.003 -0.0945 -0.2225 -0.2007
15004SOL     OW46452   1.166   5.091   3.295  0.1654 -0.1972  0.0502
15004SOL    HW146453   1.127   5.009   3.325  0.1180  0.2410  1.2211
15004SOL    HW246454   1.255   5.089   3.329  0.4446 -0.1553 -0.6687
15005SOL     OW46455   5.653   4.627  11.172 -0.1408  0.2903  0.1375
15005SOL    HW146456   5.562   4.653  11.187  0.3555  1.2497  1.8465
15005SOL    HW246457   5.656   4.534  11.193 -1.0199 -0.1198 -1.4591
15006SOL     OW46458   3.352   2.318  10.880  0.7932  1.0540 -0.0457
15006SOL    HW146459   3.328   2.227  10.898  0.7323  1.4777  2.3291
15006SOL    HW246460   3.410   2.313  10.805 -1.2366 -0.6653 -1.6263
15007SOL     OW46461   3.658   3.665  11.710 -0.5015 -0.2237 -0.0380
15007SOL    HW146462   3.621   3.749  11.683  0.1485  0.0607 -0.0634
15007SOL    HW246463   3.583   3.616  11.745 -0.7400  0.7037  0.7948
15008SOL     OW46464   1.576   7.008   1.042  0.5457  0.2134 -0.6213
15008SOL    HW146465   1.668   6.981   1.040  0.7869  0.9643  0.0020
15008SOL    HW246466   1.532   6.942   1.095  1.0694  0.8206  0.6091
15009SOL     OW46467   5.772   5.680   3.018 -0.2854  0.2935  0.2384
15009SOL    HW146468   5.771   5.673   2.922  0.9676  1.5329  0.0976
15009SOL    HW246469   5.773   5.774   3.034  0.7232  0.0938  1.4423
15010SOL     OW46470   5.389   2.965  11.544 -0.4565 -0.2746  0.5412
15010SOL    HW146471   5.382   2.980  11.450 -3.1489  1.9412  0.9718
15010SOL    HW246472   5.307   2.924  11.569  0.1726 -0.7407  1.9819
15011SOL     OW46473   7.168   0.994   7.351  0.1210 -0.2640  0.3159
15011SOL    HW146474   7.220   0.995   7.431  0.5254  0.0725  0.0490
15011SOL    HW246475   7.224   0.953   7.286  0.3771  0.8248 -0.1810
15012SOL     OW46476   7.286   6.577   8.653  0.0570 -0.0670 -0.5563
15012SOL    HW146477   7.254   6.639   8.588 -1.2881  0.5523  0.6610
15012SOL    HW246478   7.228   6.502   8.645  0.0001 -0.0626 -0.1852
15013SOL     OW46479   4.808   3.341   6.842 -0.0373 -0.5403  0.4063
15013SOL    HW146480   4.888   3.310   6.885 -0.0149 -2.1936 -0.7363
15013SOL    HW246481   4.762   3.261   6.816 -1.4327  0.3950 -0.1298
15014SOL     OW46482   1.482   6.267   5.768  0.1288 -0.1212  0.0132
15014SOL    HW146483   1.515   6.315   5.692 -0.2483 -0.1803 -0.1887
15014SOL    HW246484   1.497   6.326   5.842  1.4055 -0.4586  0.0485
15015SOL     OW46485   4.385   6.757   7.149 -0.4237 -0.9585 -0.1731
15015SOL    HW146486   4.298   6.734   7.117 -0.6279 -0.8583  0.3014
15015SOL    HW246487   4.369   6.828   7.211  0.1108 -0.0931 -0.9999
15016SOL     OW46488   1.845   4.928   0.079  0.0355  0.3651  0.2581
15016SOL    HW146489   1.903   5.001   0.059  1.0416 -0.6328 -0.6244
15016SOL    HW246490   1.768   4.968   0.119 -0.1467  2.0572 -1.6564
15017SOL     OW46491   7.020   5.074   3.237 -0.4140 -0.4376  0.1844
15017SOL    HW146492   7.094   5.133   3.225 -1.2602  0.5734 -0.1457
15017SOL    HW246493   6.953   5.127   3.279 -1.6301 -0.8270 -1.1988
15018SOL     OW46494   1.569   1.080   5.478  0.0897  0.1445  1.0418
15018SOL    HW146495   1.580   1.089   5.573 -1.8197 -2.0574  1.5655
15018SOL    HW246496   1.500   1.014   5.468  0.2219  0.3266 -1.8975
15019SOL     OW46497   4.508   2.442   4.724 -0.2488  0.5481 -0.1920
15019SOL    HW146498   4.519   2.514   4.786 -0.3338  1.0732 -0.7790
15019SOL    HW246499   4.571   2.375   4.753 -1.6597 -0.0511  1.6367
15020SOL     OW46500   0.559   0.402   9.285  0.0940  0.4173  0.0281
15020SOL    HW146501   0.563   0.341   9.360 -1.3246  1.0563  0.6684
15020SOL    HW246502   0.472   0.442   9.292  1.3661  3.3454  0.2823
15021SOL     OW46503   5.164   5.276   2.693  0.6550  0.0637  0.1407
15021SOL    HW146504   5.256   5.289   2.718  0.1739  0.1333  1.9981
15021SOL    HW246505   5.155   5.181   2.684  0.7394 -0.0010  0.6950
15022SOL     OW46506   2.246   4.288   8.700  0.1871 -0.4039 -0.0169
15022SOL    HW146507   2.184   4.220   8.676  0.9654 -1.0328 -0.3088
15022SOL    HW246508   2.263   4.275   8.793  0.3926 -0.6662 -0.0896
15023SOL     OW46509   1.965   0.726   7.252 -0.0973  0.1801  0.1422
15023SOL    HW146510   2.057   0.735   7.226  0.7209 -0.9411  2.4014
15023SOL    HW246511   1.931   0.657   7.196  0.5769  0.2665 -0.3891
15024SOL     OW46512   2.450   4.946  12.185 -0.9612 -0.4617  0.0218
15024SOL    HW146513   2.380   4.966  12.247  0.3314 -0.0340  1.4046
15024SOL    HW246514   2.530   4.977  12.228 -0.0427  0.2148 -2.0316
15025SOL     OW46515   5.360   2.114   9.313 -0.4579 -0.1518 -0.5587
15025SOL    HW146516   5.454   2.104   9.328 -0.4474  1.4799  0.8075
15025SOL    HW246517   5.342   2.063   9.234  1.5013 -0.7780 -0.6397
15026SOL     OW46518   5.337   5.711   8.198 -0.4741 -0.2708 -0.3064
15026SOL    HW146519   5.412   5.651   8.199 -0.2145  0.0525  0.8670
15026SOL    HW246520   5.273   5.670   8.257 -0.2249  0.6679  0.6478
15027SOL     OW46521   0.974   6.696   8.435 -0.1211  0.6245 -0.3547
15027SOL    HW146522   0.947   6.687   8.344  1.4972  0.4491 -0.8497
15027SOL    HW246523   1.003   6.787   8.443  1.5942  0.1356 -0.5865
15028SOL     OW46524   0.419   1.782  11.066  0.3638 -0.2242  0.6110
15028SOL    HW146525   0.455   1.871  11.064  3.3502 -1.2552  1.6904
15028SOL    HW246526   0.463   1.737  10.993  0.1894 -1.2148  1.0921
15029SOL     OW46527   5.371   7.668   1.005 -0.2276 -0.1430 -0.2759
15029SOL    HW146528   5.345   7.576   0.998  0.1701 -0.2912  0.1901
15029SOL    HW246529   5.295   7.717   0.971 -0.6592 -0.6198 -0.0066
15030SOL     OW46530   5.371   1.722   3.066 -0.7745 -0.0016 -0.1938
15030SOL    HW146531   5.321   1.680   3.137  1.6258 -0.3437  1.3927
15030SOL    HW246532   5.309   1.725   2.992 -2.5650 -1.9475  1.1102
15031SOL     OW46533   6.372   0.768   8.726  0.4297  0.0582  0.4074
15031SOL    HW146534   6.351   0.846   8.676  0.6598  0.5208  1.0271
15031SOL    HW246535   6.445   0.728   8.678 -0.8245 -0.7639 -0.9135
15032SOL     OW46536   2.406   6.927   4.905 -0.3231  0.2947 -0.1991
15032SOL    HW146537   2.322   6.974   4.904  1.1030  3.1317 -2.0271
15032SOL    HW246538   2.407   6.878   4.823 -0.2380  0.2265 -0.1568
15033SOL     OW46539   0.176   7.464   5.252 -0.0844  0.2540 -0.4543
15033SOL    HW146540   0.081   7.456   5.239 -0.0875  2.0317 -1.8707
15033SOL    HW246541   0.192   7.423   5.337 -2.2316  0.6048  0.1824
15034SOL     OW46542   4.678   5.823   2.483 -0.0711  0.1763  0.3015
15034SOL    HW146543   4.706   5.735   2.459  0.5582  0.4292  0.0964
15034SOL    HW246544   4.758   5.867   2.513 -0.2163  0.9379 -0.3935
15035SOL     OW46545   7.237   0.838   6.211  0.3827 -0.8576 -0.4080
15035SOL    HW146546   7.210   0.903   6.146  2.3215 -1.2742 -1.7521
15035SOL    HW246547   7.169   0.771   6.208 -0.7154  0.2211 -0.3283
15036SOL     OW46548   7.531   3.608   4.225 -0.3617 -0.1447 -0.1365
15036SOL    HW146549   7.472   3.657   4.167 -1.6004 -0.8138  0.5152
15036SOL    HW246550   7.576   3.547   4.168  1.5810  1.9983 -1.0637
15037SOL     OW46551   0.639   4.883   4.211 -0.6888  0.3229  0.2585
15037SOL    HW146552   0.704   4.937   4.256 -1.4433  1.7558 -0.2970
15037SOL    HW246553   0.591   4.945   4.156 -1.2985 -1.0053 -0.7623
15038SOL     OW46554   3.180   6.822   5.322 -0.1394 -0.0366  0.2118
15038SOL    HW146555   3.181   6.893   5.258  2.0144 -0.5326 -0.3946
15038SOL    HW246556   3.111   6.846   5.384 -0.2314  1.9981 -0.5978
15039SOL     OW46557   6.652   6.158   1.528  0.5034  0.2639  0.1565
15039SOL    HW146558   6.721   6.116   1.580  0.8449 -1.2233 -1.3898
15039SOL    HW246559   6.635   6.096   1.458 -0.6361  1.7563 -0.9410
15040SOL     OW46560   4.024   7.232   4.646  0.2355  0.4602 -0.5433
15040SOL    HW146561   4.056   7.143   4.647  0.4587  0.5380  0.7827
15040SOL    HW246562   3.956   7.234   4.714  0.2263  1.2955 -0.5643
15041SOL     OW46563   0.069   2.207   7.752 -0.4826 -0.0652 -0.3551
15041SOL    HW146564   0.017   2.277   7.711 -1.2807 -1.8415 -2.6240
15041SOL    HW246565   0.017   2.180   7.828 -1.0273  0.6512 -0.4584
15042SOL     OW46566   5.654   0.412   2.679 -0.1908  0.2236 -0.5258
15042SOL    HW146567   5.599   0.404   2.601 -2.1705  3.4291  0.3676
15042SOL    HW246568   5.702   0.493   2.667  1.0543 -0.2799  0.7348
15043SOL     OW46569   7.725   5.389  11.090  0.4433 -0.1313  0.1272
15043SOL    HW146570   7.666   5.452  11.131  2.9256  3.2153 -0.9537
15043SOL    HW246571   7.720   5.408  10.996  2.4606 -0.3776 -0.0829
15044SOL     OW46572   3.290   2.442   8.827 -0.9847  0.1456  0.2514
15044SOL    HW146573   3.281   2.433   8.732  0.0273 -0.5008  0.1966
15044SOL    HW246574   3.358   2.509   8.838 -0.4662 -0.4019  0.4871
15045SOL     OW46575   7.665   6.766   1.953 -0.8083  0.4097 -0.0217
15045SOL    HW146576   7.707   6.737   1.872  3.4941 -0.4784  2.2366
15045SOL    HW246577   7.609   6.692   1.978  0.7799 -0.9542 -0.3339
15046SOL     OW46578   5.944   3.237  12.077 -0.2292  0.1422  0.1461
15046SOL    HW146579   5.913   3.217  12.166 -1.9978 -0.1691 -0.4933
15046SOL    HW246580   5.903   3.169  12.023 -1.5323  1.9855 -1.2884
15047SOL     OW46581   1.667   4.621   0.321 -0.0359  0.2479  0.2504
15047SOL    HW146582   1.609   4.673   0.267  0.3014  0.1614 -0.2015
15047SOL    HW246583   1.659   4.532   0.287  1.8824  0.5545 -1.1846
15048SOL     OW46584   5.662   6.915   7.240  0.4250  0.1361 -0.4168
15048SOL    HW146585   5.734   6.861   7.274 -0.3074 -0.8608 -0.4162
15048SOL    HW246586   5.632   6.964   7.317 -0.0488 -0.7747 -0.0060
15049SOL     OW46587   4.106   2.640   5.184  0.2112  0.3196  0.1004
15049SOL    HW146588   4.166   2.705   5.148 -0.4857  0.9019 -0.0334
15049SOL    HW246589   4.117   2.648   5.279  2.6189 -1.7545  0.0859
15050SOL     OW46590   7.817   2.547   3.643  0.3758 -0.1608 -0.2649
15050SOL    HW146591   7.909   2.572   3.633  0.9662 -2.4101 -1.0361
15050SOL    HW246592   7.819   2.474   3.705 -1.0580  0.4977  0.6163
15051SOL     OW46593   7.656   7.578  11.667 -0.1558  0.4319 -0.1917
15051SOL    HW146594   7.734   7.529  11.640 -0.9320  0.1397 -2.0573
15051SOL    HW246595   7.583   7.517  11.654 -1.0842  1.8274 -2.0189
15052SOL     OW46596   3.937   1.144   2.086 -0.0238  0.0091 -0.0618
15052SOL    HW146597   3.870   1.121   2.152  0.6951 -1.8895  0.0896
15052SOL    HW246598   3.964   1.059   2.051  0.7317  0.9015 -1.7113
15053SOL     OW46599   7.575   3.054   8.822 -0.2012  0.4380  0.4016
15053SOL    HW146600   7.521   3.098   8.757 -0.5988 -0.5334  0.0750
15053SOL    HW246601   7.609   3.126   8.876 -0.9648  1.1393 -0.0238
15054SOL     OW46602   6.699   3.257   2.798  0.1551  0.5433  0.6436
15054SOL    HW146603   6.762   3.318   2.761  0.7547 -0.3440  0.1569
15054SOL    HW246604   6.743   3.171   2.793 -2.3502 -0.7270 -2.8980
15055SOL     OW46605   5.078   7.768   0.077  0.4493 -0.0571 -0.5166
15055SOL    HW146606   5.116   7.805   0.157  0.9864  1.0776 -1.2677
15055SOL    HW246607   5.090   7.837   0.011  1.3720 -1.5345 -1.9540
15056SOL     OW46608   2.399   3.784   9.024  0.1325  0.4590 -0.2990
15056SOL    HW146609   2.320   3.825   9.058  1.2348  2.1627  0.3664
15056SOL    HW246610   2.404   3.812   8.933  0.9162  1.9838  0.1689
15057SOL     OW46611   7.115   0.366   5.826 -0.0039  0.0684 -0.8029
15057SOL    HW146612   7.029   0.377   5.866  0.1330 -0.0696 -0.4732
15057SOL    HW246613   7.124   0.442   5.768  0.5996  1.3101  0.8516
15058SOL     OW46614   6.688   0.740   7.028  0.1633 -0.0060  0.1202
15058SOL    HW146615   6.640   0.814   7.063 -0.3548 -0.8000  1.1474
15058SOL    HW246616   6.687   0.753   6.933  0.3261  1.4264  0.2959
15059SOL     OW46617   5.795   0.722   5.151 -0.5020  0.1483  0.4232
15059SOL    HW146618   5.862   0.716   5.219 -0.7675 -1.5436  0.5733
15059SOL    HW246619   5.728   0.659   5.177 -0.8411 -0.2029 -1.1744
15060SOL     OW46620   2.530   1.561   1.417 -0.2428 -0.0480 -0.2061
15060SOL    HW146621   2.557   1.533   1.330 -0.2822  0.4997 -0.3932
15060SOL    HW246622   2.612   1.588   1.460 -0.2229 -0.3198 -0.0702
15061SOL     OW46623   3.664   3.036  12.285 -0.0606  0.0042  0.3507
15061SOL    HW146624   3.681   2.943  12.269 -0.9698  0.0245 -0.8529
15061SOL    HW246625   3.680   3.078  12.201  1.3902  1.1249  1.1382
15062SOL     OW46626   6.628   3.370   4.052  0.6362 -0.3427 -0.0902
15062SOL    HW146627   6.711   3.404   4.086  0.3633  3.0320 -2.2549
15062SOL    HW246628   6.652   3.315   3.978  0.9889  0.7695 -0.8203
15063SOL     OW46629   4.071   5.975   1.798  0.5484 -0.8566  0.0026
15063SOL    HW146630   4.002   5.977   1.732 -1.0952 -0.7045  1.6217
15063SOL    HW246631   4.124   5.899   1.777 -0.0975 -0.9597 -1.3145
15064SOL     OW46632   3.323   3.959  10.412  0.4858 -0.0784  0.6444
15064SOL    HW146633   3.238   3.943  10.453  0.3724 -0.1066  0.3985
15064SOL    HW246634   3.302   4.001  10.329  0.7434  0.5918  0.9088
15065SOL     OW46635   1.302   0.765   0.248  0.0689  0.4405 -0.1505
15065SOL    HW146636   1.268   0.696   0.304  1.7902 -0.2052  0.1740
15065SOL    HW246637   1.269   0.846   0.286 -0.0137 -0.0775  0.9149
15066SOL     OW46638   1.394   6.831   7.706 -0.1029 -0.0466  0.0909
15066SOL    HW146639   1.334   6.855   7.635 -1.7374 -1.1200  1.0334
15066SOL    HW246640   1.403   6.910   7.758 -1.4446 -0.0832  0.4139
15067SOL     OW46641   7.510   7.239   7.038  0.0403  0.5673  0.1002
15067SOL    HW146642   7.465   7.183   6.976  0.7154  0.6381 -0.4644
15067SOL    HW246643   7.582   7.277   6.989  0.3392  0.9541  0.8133
15068SOL     OW46644   4.351   0.285   4.080  0.2285  0.0627 -0.1875
15068SOL    HW146645   4.428   0.229   4.089 -0.8052 -1.3909 -0.0380
15068SOL    HW246646   4.304   0.276   4.163  0.5535  2.0161  0.2637
15069SOL     OW46647   5.129   7.499  10.556 -0.1194  0.1703 -0.2665
15069SOL    HW146648   5.122   7.591  10.529  0.8177  0.1789 -0.5204
15069SOL    HW246649   5.201   7.464  10.504  0.3312 -0.3867  0.7023
15070SOL     OW46650   0.674   7.696   6.106  0.0634  0.5544  0.3210
15070SOL    HW146651   0.736   7.709   6.178  0.4962 -2.7920  0.6869
15070SOL    HW246652   0.590   7.681   6.149 -0.2460  1.2393 -0.0272
15071SOL     OW46653   4.272   1.106  11.023 -0.8875  0.1603 -0.2916
15071SOL    HW146654   4.317   1.159  10.957 -0.2710 -0.8519 -0.6994
15071SOL    HW246655   4.186   1.148  11.032  0.1597  2.2085  0.6180
15072SOL     OW46656   4.780   7.388   0.091  0.5530  0.4175  0.2083
15072SOL    HW146657   4.826   7.332   0.153  1.4349  0.3581 -0.4775
15072SOL    HW246658   4.842   7.458   0.071 -0.1237  1.0284  0.2021
15073SOL     OW46659   3.508   0.895   7.315 -0.1396 -0.6883  0.5133
15073SOL    HW146660   3.490   0.909   7.408 -2.3497  0.7755 -0.0326
15073SOL    HW246661   3.566   0.967   7.290 -2.1353  0.9102  0.1717
15074SOL     OW46662   3.071   4.548   6.606 -0.2019 -0.0417  0.5307
15074SOL    HW146663   3.112   4.501   6.533  1.5411  0.7016  0.9819
15074SOL    HW246664   3.075   4.640   6.580 -0.3751  0.1531  1.1790
15075SOL     OW46665   0.952   2.872   0.245 -0.2655 -0.6303 -0.9324
15075SOL    HW146666   0.928   2.791   0.290  0.1752 -0.2085  0.0901
15075SOL    HW246667   0.885   2.935   0.271 -1.2595 -0.9260 -2.6247
15076SOL     OW46668   0.242   0.552   2.530  0.5906  0.0216 -0.3513
15076SOL    HW146669   0.336   0.548   2.552  0.6566 -0.9284 -0.7495
15076SOL    HW246670   0.237   0.615   2.459  0.7726  0.8978  0.3973
15077SOL     OW46671   6.168   7.724   9.614  0.3695 -0.1444 -0.7513
15077SOL    HW146672   6.250   7.680   9.634 -0.2869 -2.0460 -1.9223
15077SOL    HW246673   6.176   7.749   9.522 -0.2863 -0.2084 -0.8333
15078SOL     OW46674   4.693   5.943  12.143 -0.0532  0.2503  0.4485
15078SOL    HW146675   4.701   5.965  12.236  1.0827  1.2216  0.1445
15078SOL    HW246676   4.740   6.013  12.097 -2.3198  0.8954 -1.0165
15079SOL     OW46677   5.022   3.161   1.365  0.0550 -0.1322  0.5487
15079SOL    HW146678   4.951   3.099   1.378  0.6092 -0.5369  1.7228
15079SOL    HW246679   5.097   3.108   1.339  0.2422  0.1651  0.4699
15080SOL     OW46680   3.064   7.395  10.304 -0.1581  0.9298  0.1149
15080SOL    HW146681   3.007   7.423  10.376 -0.3275  0.3190  0.2238
15080SOL    HW246682   3.138   7.353  10.348 -0.6365 -0.1491 -0.0789
15081SOL     OW46683   4.536   4.321   9.836 -0.2218  0.6732 -0.2080
15081SOL    HW146684   4.462   4.380   9.850 -0.2297  0.9079 -1.1403
15081SOL    HW246685   4.550   4.280   9.921 -0.5666  1.6119  0.3269
15082SOL     OW46686   5.941   2.392   0.063 -0.2959  0.4218 -0.1999
15082SOL    HW146687   6.006   2.440   0.011  0.9045 -1.1535 -0.2062
15082SOL    HW246688   5.979   2.385   0.150 -0.0690 -1.1898 -0.3996
15083SOL     OW46689   7.847   7.239   3.946  0.9330 -0.0203  0.0252
15083SOL    HW146690   7.926   7.292   3.939  2.0027 -1.6270 -0.4664
15083SOL    HW246691   7.826   7.215   3.855 -0.8905  1.3992 -0.0054
15084SOL     OW46692   6.364   5.940   3.180  0.1368 -0.5583  0.1073
15084SOL    HW146693   6.334   5.948   3.270  0.2044 -0.3587  0.1125
15084SOL    HW246694   6.293   5.977   3.127 -0.2367 -1.3768  0.0266
15085SOL     OW46695   7.490   4.548   1.199  0.2355  0.1810 -0.0603
15085SOL    HW146696   7.559   4.612   1.214 -0.5392  0.6050  2.0280
15085SOL    HW246697   7.419   4.597   1.159  0.0255  0.4329  0.6034
15086SOL     OW46698   0.590   2.299   7.887  0.1319  0.0373  0.3968
15086SOL    HW146699   0.588   2.386   7.847  2.9742 -0.5086 -1.2193
15086SOL    HW246700   0.678   2.292   7.925 -0.8061 -1.3439  2.4804
15087SOL     OW46701   6.568   0.196   6.048 -0.0814 -0.0954 -0.2501
15087SOL    HW146702   6.549   0.119   6.102  3.5328 -0.2726  1.0658
15087SOL    HW246703   6.538   0.172   5.960 -2.7959 -1.2592  0.8833
15088SOL     OW46704   0.049   0.961   7.763  0.3924 -0.3898  0.9864
15088SOL    HW146705  -0.046   0.945   7.760  0.1402  0.5787  2.5511
15088SOL    HW246706   0.088   0.881   7.728 -1.0138 -0.3090 -0.9195
15089SOL     OW46707   1.521   2.752   3.921 -0.3408 -0.8077  0.6064
15089SOL    HW146708   1.594   2.768   3.981  0.5255 -0.5892 -0.4725
15089SOL    HW246709   1.535   2.814   3.849  1.2875 -3.9497 -2.0945
15090SOL     OW46710   5.065   2.302  11.189  0.0208  0.0536 -0.3504
15090SOL    HW146711   5.075   2.298  11.284 -0.0430  1.8212 -0.2267
15090SOL    HW246712   5.120   2.231  11.156  1.9711  0.8855  0.9139
15091SOL     OW46713   7.853   1.352  11.214  0.3447  0.0247  0.6918
15091SOL    HW146714   7.836   1.274  11.268  1.7308 -0.5882  0.3016
15091SOL    HW246715   7.870   1.316  11.127 -1.3912  0.9689 -0.0869
15092SOL     OW46716   3.094   3.825   4.501  0.4211 -0.5350  0.6954
15092SOL    HW146717   3.065   3.795   4.587  1.5183 -1.3436  0.8067
15092SOL    HW246718   3.186   3.849   4.513 -0.0982  1.8938  0.3408
15093SOL     OW46719   6.884   0.196  11.872  0.0116  0.2450  0.0023
15093SOL    HW146720   6.892   0.283  11.833  2.5740  0.3132  0.5083
15093SOL    HW246721   6.794   0.169  11.852  0.1358  1.6279 -3.0164
15094SOL     OW46722   5.087   6.463   7.629 -0.2842  0.2381 -0.7407
15094SOL    HW146723   5.167   6.514   7.615 -0.2836  0.6468  0.5916
15094SOL    HW246724   5.094   6.391   7.567  1.8636 -0.5844  0.3396
15095SOL     OW46725   0.320   6.156   2.541  0.3788 -0.0795 -0.5609
15095SOL    HW146726   0.365   6.093   2.484 -1.3633 -0.0387 -2.0592
15095SOL    HW246727   0.232   6.120   2.551  0.2653  0.5817  1.1098
15096SOL     OW46728   7.774   5.699   1.628  0.0261 -0.3979  0.2260
15096SOL    HW146729   7.805   5.755   1.699 -1.0752 -0.4559  0.7860
15096SOL    HW246730   7.818   5.730   1.550  1.5307 -0.5474  0.9900
15097SOL     OW46731   5.787   7.697   8.508  0.0525 -0.7905 -0.0261
15097SOL    HW146732   5.857   7.758   8.533 -0.6914  0.1161 -0.0689
15097SOL    HW246733   5.830   7.631   8.454  1.0125 -0.7062  0.6165
15098SOL     OW46734   2.890   1.866   1.037 -0.4471 -0.2448 -0.0421
15098SOL    HW146735   2.915   1.803   1.104 -0.2495 -0.2193 -0.0921
15098SOL    HW246736   2.794   1.866   1.039 -0.4944 -1.5362 -0.9483
15099SOL     OW46737   4.423   0.489   4.803  0.0479 -0.0935  0.0452
15099SOL    HW146738   4.406   0.400   4.772  0.6990 -0.2354  0.0772
15099SOL    HW246739   4.400   0.545   4.729 -0.0585 -0.3132 -0.0892
15100SOL     OW46740   2.076   6.863   1.399  0.6230  0.1526 -0.3071
15100SOL    HW146741   1.981   6.863   1.390  0.3765  1.1691  1.7416
15100SOL    HW246742   2.107   6.808   1.327 -1.3940  1.1020 -1.9964
15101SOL     OW46743   1.693   4.219   5.374 -0.4114 -0.3134 -0.3748
15101SOL    HW146744   1.656   4.151   5.430 -2.0254 -1.3870 -2.5966
15101SOL    HW246745   1.623   4.284   5.366  1.3009  2.0771  2.1830
15102SOL     OW46746   6.841   2.767   2.126 -0.1130 -0.1702 -0.1052
15102SOL    HW146747   6.750   2.781   2.099  0.4406 -0.2167 -2.2013
15102SOL    HW246748   6.861   2.678   2.099  0.7617  0.0847 -0.3525
15103SOL     OW46749   3.346   2.660   4.995  0.1224  0.1754 -0.0644
15103SOL    HW146750   3.354   2.750   5.029 -1.3143  1.0168 -1.7695
15103SOL    HW246751   3.253   2.651   4.974  0.7902 -0.4675 -3.1357
15104SOL     OW46752   3.629   2.661   1.047 -0.0719 -0.6250  0.3747
15104SOL    HW146753   3.586   2.688   0.965 -1.2665  2.7060  1.8914
15104SOL    HW246754   3.561   2.613   1.095 -0.0268 -0.8324  0.2326
15105SOL     OW46755   4.362   4.811   2.961 -0.7862 -0.5485 -0.7914
15105SOL    HW146756   4.269   4.793   2.947 -0.8718 -0.3821 -0.4330
15105SOL    HW246757   4.390   4.741   3.020 -0.5125 -1.0245 -1.4648
15106SOL     OW46758   7.211   2.218   7.086  0.6197 -0.0084  0.2907
15106SOL    HW146759   7.152   2.292   7.086  2.1204  1.2842 -1.5834
15106SOL    HW246760   7.297   2.255   7.107  1.0758 -1.5651  1.3915
15107SOL     OW46761   1.599   5.014   4.912 -0.0353 -0.0235  0.2816
15107SOL    HW146762   1.604   5.095   4.963 -1.2827  0.1644  0.1266
15107SOL    HW246763   1.607   4.944   4.977  1.2501  0.2022  0.3954
15108SOL     OW46764   3.898   0.475   5.465  0.6721  0.2371 -0.4530
15108SOL    HW146765   3.808   0.454   5.492 -0.6508  2.5634 -2.5864
15108SOL    HW246766   3.892   0.563   5.428  3.7705  0.2640 -1.1603
15109SOL     OW46767   4.406   7.297   6.474  0.1797 -0.0455  0.0839
15109SOL    HW146768   4.333   7.251   6.515 -1.7986  0.3993 -2.6566
15109SOL    HW246769   4.365   7.356   6.411  2.6962  3.6150  1.4756
15110SOL     OW46770   1.343   4.348   1.943 -0.4334  0.3540  0.7153
15110SOL    HW146771   1.317   4.265   1.902 -1.8542  0.2717  1.6922
15110SOL    HW246772   1.437   4.355   1.926 -0.0157 -2.0430  1.5875
15111SOL     OW46773   2.829   2.417   3.202 -0.0474 -0.1352  0.5579
15111SOL    HW146774   2.843   2.325   3.180  0.8580  0.0991  0.1056
15111SOL    HW246775   2.914   2.448   3.234 -0.2265  0.6540  0.3029
15112SOL     OW46776   3.855   5.339   3.475 -0.2901  0.1748 -0.5565
15112SOL    HW146777   3.837   5.284   3.551  1.5037  2.5755  1.7758
15112SOL    HW246778   3.949   5.333   3.462  0.3063  3.9253  0.9616
15113SOL     OW46779   1.693   6.562   6.240 -0.3899 -0.6361 -0.1999
15113SOL    HW146780   1.751   6.611   6.298 -1.0927 -1.9057  1.6415
15113SOL    HW246781   1.739   6.562   6.156  1.1354  0.4037  0.5756
15114SOL     OW46782   3.015   0.185   4.328 -0.3935 -0.5111  0.0294
15114SOL    HW146783   3.075   0.130   4.376  0.0910 -0.7522 -0.8354
15114SOL    HW246784   2.928   0.161   4.361 -0.1337 -1.2687  0.1701
15115SOL     OW46785   1.989   2.223   1.477  0.6667  0.0686  0.2378
15115SOL    HW146786   2.010   2.160   1.546  0.2621 -0.3142  0.0270
15115SOL    HW246787   2.024   2.183   1.397 -1.4050 -0.9643 -0.2499
15116SOL     OW46788   7.381   3.582   1.065 -0.2013  0.3955 -0.0835
15116SOL    HW146789   7.362   3.643   1.137 -1.0960  0.2912 -0.2198
15116SOL    HW246790   7.466   3.611   1.032  0.1175  0.5846  0.8682
15117SOL     OW46791   0.279   0.713   2.324 -0.2078  0.2732 -0.1859
15117SOL    HW146792   0.286   0.803   2.358  0.6831  0.2798 -0.3478
15117SOL    HW246793   0.243   0.722   2.236 -1.6093  0.3377  0.3816
15118SOL     OW46794   5.717   2.209   3.867 -0.4585  0.1171 -0.0713
15118SOL    HW146795   5.701   2.284   3.811  0.4325 -0.1877 -0.7605
15118SOL    HW246796   5.706   2.243   3.956 -0.2999  1.0081 -0.3812
15119SOL     OW46797   0.792   2.854   1.845  0.0191 -0.1833  0.5476
15119SOL    HW146798   0.795   2.881   1.937  0.2736  0.2370  0.4172
15119SOL    HW246799   0.883   2.847   1.819 -0.0325  1.3704 -0.1554
15120SOL     OW46800   3.851   0.662   8.593 -0.4910  0.8014  0.5415
15120SOL    HW146801   3.925   0.723   8.591  0.2870 -0.1458 -0.5202
15120SOL    HW246802   3.883   0.587   8.643  0.1348 -0.6325 -1.8941
15121SOL     OW46803   4.966   4.925   6.744 -0.0014 -0.4943  0.3563
15121SOL    HW146804   4.895   4.921   6.680  1.2880  0.7422 -1.2284
15121SOL    HW246805   5.026   4.991   6.710  1.3587 -0.6601  2.2453
15122SOL     OW46806   3.287   3.278   2.839  0.0486 -0.2792  0.1374
15122SOL    HW146807   3.377   3.306   2.822  0.7653 -2.2030  0.4634
15122SOL    HW246808   3.297   3.198   2.892 -1.8457 -0.6139  0.0456
15123SOL     OW46809   2.478   7.499   6.159 -0.1731 -0.6572 -0.3801
15123SOL    HW146810   2.534   7.426   6.184  0.1736 -0.7014 -1.2408
15123SOL    HW246811   2.537   7.559   6.113 -0.6743 -0.3506 -0.6240
15124SOL     OW46812   5.592   6.229   1.914 -0.0830 -0.1127  0.3700
15124SOL    HW146813   5.568   6.137   1.912 -0.8058  0.0165  1.6634
15124SOL    HW246814   5.533   6.271   1.852  0.5946 -0.5641 -0.6131
15125SOL     OW46815   0.515   2.326   0.070 -0.4035 -1.1018 -0.0261
15125SOL    HW146816   0.475   2.289  -0.009 -0.4748 -2.4780  0.6174
15125SOL    HW246817   0.535   2.250   0.124  1.5628 -0.3307  0.4074
15126SOL     OW46818   7.623   6.697   5.159  0.2166 -0.8643 -0.5380
15126SOL    HW146819   7.555   6.688   5.093  1.5972  0.0072 -2.1340
15126SOL    HW246820   7.600   6.632   5.226 -1.7261 -1.1199 -1.3989
15127SOL     OW46821   3.104   2.216   8.249  0.0541  0.2214  0.3111
15127SOL    HW146822   3.080   2.297   8.204 -0.0679  0.5360  0.9299
15127SOL    HW246823   3.098   2.238   8.342  0.3448 -0.4056  0.4811
15128SOL     OW46824   6.158   6.864   7.540 -0.4975  0.6074  0.3920
15128SOL    HW146825   6.133   6.831   7.454 -0.9385  0.5070  0.5533
15128SOL    HW246826   6.217   6.937   7.522  0.8155 -0.5023  0.0373
15129SOL     OW46827   1.167   6.186  10.080 -0.3821  0.1480  0.3461
15129SOL    HW146828   1.091   6.218  10.128 -1.0202  0.1634 -0.6296
15129SOL    HW246829   1.242   6.202  10.138 -1.0164  0.9057  0.9752
15130SOL     OW46830   0.064   3.299   6.933  0.0564 -0.2007  0.2454
15130SOL    HW146831   0.020   3.358   6.872  3.0099  0.1436 -1.7736
15130SOL    HW246832   0.139   3.350   6.966  0.1363 -1.3561  1.9905
15131SOL     OW46833   3.992   6.992   1.181  0.1915 -0.2810  0.0340
15131SOL    HW146834   3.924   6.959   1.121  1.7070  0.5222 -2.2722
15131SOL    HW246835   3.964   7.080   1.204 -1.1867 -1.1356  1.8903
15132SOL     OW46836   7.669   2.576   5.256 -0.0247 -0.0081 -0.5052
15132SOL    HW146837   7.641   2.518   5.327  0.3486 -0.3696 -0.6516
15132SOL    HW246838   7.729   2.638   5.299  0.4768 -0.4415 -0.5641
15133SOL     OW46839   3.994   2.821   7.673  0.1841  0.6095 -0.0126
15133SOL    HW146840   4.048   2.751   7.638 -0.6204 -0.0415  0.0176
15133SOL    HW246841   3.948   2.782   7.747  2.1215  2.0423  2.0879
15134SOL     OW46842   2.222   4.831   5.798  0.0586 -0.2079 -0.0669
15134SOL    HW146843   2.174   4.802   5.875 -1.0260  1.6462  0.0204
15134SOL    HW246844   2.200   4.767   5.730 -0.3036 -0.9334  0.7265
15135SOL     OW46845   3.733   2.786  12.204 -0.0005  0.2613 -0.1181
15135SOL    HW146846   3.766   2.738  12.280  0.5628  2.1326  0.9002
15135SOL    HW246847   3.705   2.719  12.143  0.1832 -1.3288  1.4608
15136SOL     OW46848   0.233   1.027   6.180  0.8336 -0.5516 -0.0394
15136SOL    HW146849   0.179   0.993   6.251  1.4905  1.7304  1.6667
15136SOL    HW246850   0.171   1.061   6.116  0.1409  1.7124  1.7171
15137SOL     OW46851   4.336   1.950   5.377  0.1904  0.2063 -0.3763
15137SOL    HW146852   4.258   1.985   5.333 -0.7171 -0.4378  0.6659
15137SOL    HW246853   4.402   1.943   5.308 -0.3478  1.7237 -1.0720
15138SOL     OW46854   6.065   5.292   3.560  0.0745  0.4152 -0.2750
15138SOL    HW146855   5.980   5.321   3.527  0.5872  0.1450 -1.8818
15138SOL    HW246856   6.121   5.286   3.483  0.8195 -2.0570  0.3654
15139SOL     OW46857   5.491   0.473   4.627 -0.0761 -0.2353  0.6021
15139SOL    HW146858   5.567   0.475   4.685 -0.2085 -1.6202  0.8539
15139SOL    HW246859   5.524   0.500   4.542  0.9347 -1.7786  0.4735
15140SOL     OW46860   1.419   4.038   0.402  0.3027  0.5760 -0.1062
15140SOL    HW146861   1.416   3.949   0.368  0.1153  1.1003 -1.5503
15140SOL    HW246862   1.512   4.057   0.413  0.3203 -0.4051  2.0331
15141SOL     OW46863   2.961   3.238  12.022 -0.1338 -0.3751  0.6219
15141SOL    HW146864   3.027   3.306  12.016 -0.9432  0.5592  1.7405
15141SOL    HW246865   2.932   3.224  11.931  0.5058  0.3047  0.3051
15142SOL     OW46866   2.124   7.501   6.722 -0.0363  0.2668  0.5092
15142SOL    HW146867   2.083   7.576   6.679  0.6569  0.0099 -0.6566
15142SOL    HW246868   2.135   7.436   6.652  1.2733 -0.1066  1.0171
15143SOL     OW46869   2.653   0.168  10.656  0.0093 -0.3917  0.8019
15143SOL    HW146870   2.702   0.223  10.595 -1.7602  1.3477  0.8620
15143SOL    HW246871   2.673   0.203  10.742 -0.0888 -0.7043  0.9526
15144SOL     OW46872   1.324   4.053   2.286 -0.0850 -0.1559 -0.5937
15144SOL    HW146873   1.250   4.005   2.323  1.8306 -1.8987  1.2740
15144SOL    HW246874   1.336   4.015   2.199  0.5382 -2.2357  0.3233
15145SOL     OW46875   6.975   2.944  10.390  0.6797 -0.0989 -0.6148
15145SOL    HW146876   6.926   2.882  10.444  0.8028 -0.0573 -0.4570
15145SOL    HW246877   6.975   3.025  10.440  2.6212 -0.6350  0.3325
15146SOL     OW46878   6.540   6.640   7.805 -0.3048 -0.2873  0.5012
15146SOL    HW146879   6.592   6.579   7.857  1.5467  0.6158 -0.1890
15146SOL    HW246880   6.511   6.588   7.730  1.1175 -0.3943 -0.0034
15147SOL     OW46881   4.780   1.878   3.745  0.1862  0.1109  0.4822
15147SOL    HW146882   4.754   1.786   3.751 -1.6286  0.6405  1.7090
15147SOL    HW246883   4.870   1.875   3.713  0.7893 -2.1725  2.1062
15148SOL     OW46884   3.014   2.288   0.478 -0.1629 -0.4866 -0.8638
15148SOL    HW146885   3.052   2.294   0.566 -0.6330 -0.1230 -0.6834
15148SOL    HW246886   2.923   2.263   0.493 -0.2818 -0.2844 -1.2359
15149SOL     OW46887   0.303   2.459   2.071 -0.3743 -0.7623 -0.4293
15149SOL    HW146888   0.399   2.458   2.070 -0.3705 -0.9126 -0.1608
15149SOL    HW246889   0.279   2.544   2.034 -0.1157 -0.1259  0.8112
15150SOL     OW46890   7.346   4.084   7.959  0.2098 -0.1364 -0.1538
15150SOL    HW146891   7.334   4.067   7.865  0.0393 -0.5124 -0.0634
15150SOL    HW246892   7.310   4.007   8.002 -1.9281  1.0773  0.3370
15151SOL     OW46893   2.954   3.067   3.985  0.0436  0.3849  0.2727
15151SOL    HW146894   3.017   3.007   3.945  0.4722  0.2903  1.0671
15151SOL    HW246895   2.876   3.014   4.000 -0.0231  0.3532 -0.1903
15152SOL     OW46896   1.916   5.586   0.055  0.2936  0.6124 -0.1768
15152SOL    HW146897   1.886   5.669   0.016 -1.5810  0.4788  0.8984
15152SOL    HW246898   1.911   5.601   0.149  1.1836 -0.3150  0.0303
15153SOL     OW46899   0.337   2.108  11.294 -0.5706  0.2484  0.3855
15153SOL    HW146900   0.307   2.196  11.274  2.9589  1.5911  0.1874
15153SOL    HW246901   0.380   2.078  11.214  2.2922  0.3563  1.7304
15154SOL     OW46902   3.156   1.983  12.130 -0.1390 -0.0820  0.0088
15154SOL    HW146903   3.145   1.934  12.049 -0.1645  0.6150 -0.4147
15154SOL    HW246904   3.108   2.064  12.117  0.7667  0.5236  0.2874
15155SOL     OW46905   3.502   7.824   8.104 -0.2997 -0.9280 -0.3398
15155SOL    HW146906   3.547   7.762   8.046  0.0188  0.3689 -1.5443
15155SOL    HW246907   3.428   7.855   8.053 -1.1480 -1.1829  0.7037
15156SOL     OW46908   5.918   6.371  10.853  0.0186 -0.0433 -0.5042
15156SOL    HW146909   5.958   6.409  10.775  0.8543  1.3189  0.5355
15156SOL    HW246910   5.991   6.333  10.902 -0.2751  0.3686  0.2751
15157SOL     OW46911   2.314   7.330  11.851  0.4076 -0.2919 -0.2546
15157SOL    HW146912   2.331   7.238  11.869  1.5086  0.0453  0.5640
15157SOL    HW246913   2.276   7.363  11.932 -0.3329 -0.0948 -0.6715
15158SOL     OW46914   0.079   1.821   6.846 -0.7694  0.1739  0.0710
15158SOL    HW146915   0.047   1.857   6.764 -1.1194 -1.0149 -0.3288
15158SOL    HW246916   0.127   1.742   6.821 -1.1564 -0.3832  1.0298
15159SOL     OW46917   3.052   1.934   0.025 -0.3340  0.5658 -0.0185
15159SOL    HW146918   3.110   1.875   0.073 -1.1950  0.0378  0.3967
15159SOL    HW246919   3.092   1.942  -0.061  0.4004  0.2855  0.2870
15160SOL     OW46920   2.696   3.943   7.864 -0.0990  0.1943  0.0759
15160SOL    HW146921   2.728   3.853   7.856  0.4812  0.4490 -0.6091
15160SOL    HW246922   2.718   3.969   7.954  0.5325 -0.0502 -0.0063
15161SOL     OW46923   1.828   4.263   3.916  0.4572  0.0140  0.2860
15161SOL    HW146924   1.907   4.290   3.868  0.3411  1.3662  0.8360
15161SOL    HW246925   1.834   4.308   4.000 -0.1848 -1.0290  0.9203
15162SOL     OW46926   1.412   3.926   6.721 -0.4065  0.4021 -0.0912
15162SOL    HW146927   1.494   3.976   6.721  0.8583 -1.1287  5.2069
15162SOL    HW246928   1.353   3.977   6.776 -0.9766 -1.1894  0.8267
15163SOL     OW46929   2.558   0.361   3.441  0.6266 -0.4221 -0.0815
15163SOL    HW146930   2.531   0.275   3.408 -0.1484 -0.0949 -0.3060
15163SOL    HW246931   2.505   0.375   3.519  0.4224  0.0562 -0.3050
15164SOL     OW46932   3.631   0.275   9.281 -0.0939  0.6663  0.0571
15164SOL    HW146933   3.700   0.321   9.233 -0.4563 -0.1251 -1.2718
15164SOL    HW246934   3.677   0.209   9.332  0.1621  0.0636 -0.9157
15165SOL     OW46935   4.119   2.270   2.023 -0.1016 -0.7346  0.5196
15165SOL    HW146936   4.127   2.346   1.966  0.8426  0.1932  1.8433
15165SOL    HW246937   4.149   2.196   1.969  0.5804  0.0877 -0.2484
15166SOL     OW46938   2.735   3.413   8.200  0.1820 -0.1939 -0.1639
15166SOL    HW146939   2.677   3.384   8.270 -0.0511 -1.7676 -0.9636
15166SOL    HW246940   2.689   3.390   8.120  2.0761 -1.9126 -0.8172
15167SOL     OW46941   6.505   6.122   2.869  0.3440 -0.2927 -0.3515
15167SOL    HW146942   6.459   6.180   2.808  1.0572  0.3932 -0.2570
15167SOL    HW246943   6.462   6.037   2.859 -1.2867  0.4342  0.1086
15168SOL     OW46944   6.227   0.921   7.792  0.0324  0.4767 -0.0879
15168SOL    HW146945   6.196   0.830   7.804  0.2107  0.6609  2.2946
15168SOL    HW246946   6.301   0.914   7.732 -1.0634 -0.7071 -1.3671
15169SOL     OW46947   1.229   2.505  11.944  0.0270 -0.0304 -0.2317
15169SOL    HW146948   1.296   2.444  11.976 -0.5275 -0.7321 -0.4145
15169SOL    HW246949   1.146   2.466  11.970 -0.3177  1.5471  1.3185
15170SOL     OW46950   4.094   2.907  10.921  0.3645  0.6951 -0.8269
15170SOL    HW146951   4.039   2.870  10.852  1.0039 -2.7963  0.3089
15170SOL    HW246952   4.033   2.944  10.984 -0.7620 -2.0424 -0.1544
15171SOL     OW46953   3.248   1.458   4.027 -0.2854 -0.0543 -0.1354
15171SOL    HW146954   3.227   1.534   4.080  1.0046  1.3647 -1.5771
15171SOL    HW246955   3.169   1.442   3.975  0.3392  2.1396 -1.9015
15172SOL     OW46956   0.704   2.283   4.142  0.1256  0.2099 -0.0591
15172SOL    HW146957   0.645   2.299   4.215 -0.1212 -1.6143  0.1954
15172SOL    HW246958   0.647   2.273   4.066  0.0879 -1.1882  0.1224
15173SOL     OW46959   3.676   6.433   4.313  0.4929  0.3030 -0.5420
15173SOL    HW146960   3.748   6.397   4.262 -0.2406  0.2923 -1.6104
15173SOL    HW246961   3.682   6.390   4.398  2.2410  0.9307 -0.3206
15174SOL     OW46962   2.238   0.959   8.215 -0.0838 -0.2964 -0.1310
15174SOL    HW146963   2.156   0.939   8.261  1.2920 -0.2692  2.5207
15174SOL    HW246964   2.275   0.873   8.195  1.3552 -0.4772  2.8435
15175SOL     OW46965   3.776   6.259   6.197  0.7116 -0.1578 -0.4348
15175SOL    HW146966   3.750   6.311   6.121 -0.5636 -1.7006 -1.1234
15175SOL    HW246967   3.779   6.169   6.164  0.6871 -0.8081  1.2295
15176SOL     OW46968   4.980   5.421  11.455  0.3016 -0.0772  0.4786
15176SOL    HW146969   5.024   5.375  11.383  1.6574  0.8204  0.6849
15176SOL    HW246970   4.889   5.426  11.428  0.6833 -0.2263 -0.9382
15177SOL     OW46971   5.133   6.987   6.786 -0.5582 -0.2050 -0.0126
15177SOL    HW146972   5.038   6.979   6.791 -0.8593  1.3294 -1.9703
15177SOL    HW246973   5.150   7.082   6.790  0.5538 -0.1793 -2.9739
15178SOL     OW46974   0.674   7.423   3.442 -0.0186 -0.0402  0.1628
15178SOL    HW146975   0.660   7.455   3.353 -1.8301 -0.6428  0.1912
15178SOL    HW246976   0.603   7.461   3.493 -0.4300 -1.6223  0.8280
15179SOL     OW46977   4.553   0.244   0.236  0.0291 -0.0252 -0.2119
15179SOL    HW146978   4.605   0.173   0.275  0.4305  0.3624 -0.0379
15179SOL    HW246979   4.614   0.291   0.180  0.7211  2.2610  2.2596
15180SOL     OW46980   5.338   6.558   2.484 -0.0196  0.0197 -0.0115
15180SOL    HW146981   5.348   6.475   2.531 -0.0723 -1.6748 -2.7146
15180SOL    HW246982   5.427   6.590   2.471 -0.0720  1.4746  2.6515
15181SOL     OW46983   0.613   4.411   4.617  0.3780 -0.1783 -0.1217
15181SOL    HW146984   0.539   4.456   4.658  0.4449 -1.2172  1.2176
15181SOL    HW246985   0.575   4.334   4.575  0.4961  0.1769 -0.9100
15182SOL     OW46986   4.319   4.190   5.735  0.1496  0.1958 -0.5236
15182SOL    HW146987   4.333   4.139   5.815 -1.3143  0.6138  0.0187
15182SOL    HW246988   4.407   4.208   5.703  0.7618 -3.1020 -1.0301
15183SOL     OW46989   1.401   1.954   3.986  0.0503 -0.4515 -0.3132
15183SOL    HW146990   1.345   1.897   3.933 -0.6890 -0.3868  0.3735
15183SOL    HW246991   1.341   2.021   4.020  0.6409 -0.0897  0.0307
15184SOL     OW46992   6.575   4.984   5.408 -0.0583 -0.5556  0.2459
15184SOL    HW146993   6.650   5.038   5.387  0.2121 -1.3037 -0.8115
15184SOL    HW246994   6.583   4.908   5.350 -0.7361 -1.4410  1.2671
15185SOL     OW46995   4.214   7.308   2.772  0.3541 -0.0436  0.5132
15185SOL    HW146996   4.165   7.316   2.855  0.2603  0.5732  0.4063
15185SOL    HW246997   4.297   7.267   2.797 -0.5351 -1.9039  0.5703
15186SOL     OW46998   0.462   7.093   0.766 -0.0610 -0.0972  0.0463
15186SOL    HW146999   0.502   7.006   0.772  1.6880  0.7086  1.0037
15186SOL    HW247000   0.455   7.110   0.672 -1.0168 -1.4870 -0.1678
15187SOL     OW47001   7.374   0.269   1.499 -0.0338 -0.0486 -0.1998
15187SOL    HW147002   7.451   0.326   1.504 -0.5662  0.7291 -0.6181
15187SOL    HW247003   7.378   0.230   1.412  0.5207 -0.9460  0.2145
15188SOL     OW47004   7.828   7.559   3.817 -0.2118 -0.3142 -0.5824
15188SOL    HW147005   7.805   7.649   3.793  0.3998  0.2717  0.8785
15188SOL    HW247006   7.745   7.517   3.837 -0.4393  0.2013 -0.4238
15189SOL     OW47007   6.291   4.284   0.797  0.4514  0.2101  0.4581
15189SOL    HW147008   6.352   4.294   0.724 -1.4772  2.1763 -1.0354
15189SOL    HW247009   6.239   4.206   0.775  0.9110 -0.1332  0.5726
15190SOL     OW47010   6.718   1.589   1.518  0.3328 -0.1490  0.1055
15190SOL    HW147011   6.622   1.584   1.518  0.3503 -0.5948  0.4413
15190SOL    HW247012   6.737   1.682   1.508 -0.1220 -0.1446 -0.8454
15191SOL     OW47013   1.414   7.664   4.172 -0.6309 -0.4463 -0.0363
15191SOL    HW147014   1.505   7.657   4.144  0.0084 -0.9783  2.0642
15191SOL    HW247015   1.364   7.657   4.090  1.0731 -3.1319 -0.9924
15192SOL     OW47016   5.519   5.761  10.513 -0.6703 -0.0812  0.3792
15192SOL    HW147017   5.508   5.788  10.604  0.1603 -1.2317  0.8597
15192SOL    HW247018   5.517   5.665  10.517 -0.8613 -0.1423 -0.8517
15193SOL     OW47019   1.853   4.529   3.539 -0.0714 -0.0216  0.0203
15193SOL    HW147020   1.782   4.584   3.573 -0.3334  0.8731 -1.8090
15193SOL    HW247021   1.814   4.443   3.528 -0.6638  0.2708 -0.2134
15194SOL     OW47022   5.077   4.954  10.500  0.4444  0.2087 -0.3932
15194SOL    HW147023   5.090   4.920  10.412  1.2154  1.4393 -0.7795
15194SOL    HW247024   5.108   5.044  10.496 -1.5464  0.9993  0.5845
15195SOL     OW47025   5.050   1.486   0.730  0.0398  0.1085 -0.0276
15195SOL    HW147026   4.968   1.452   0.766 -0.5191  1.2908 -0.1488
15195SOL    HW247027   5.024   1.555   0.670  1.1409  0.7004  0.1370
15196SOL     OW47028   2.429   4.273   3.247 -0.2907  0.4324 -0.2848
15196SOL    HW147029   2.336   4.295   3.247 -0.9156 -1.9274 -0.6296
15196SOL    HW247030   2.432   4.183   3.215  1.7647 -0.8998  3.1599
15197SOL     OW47031   5.904   3.896  12.222  0.1381 -0.1697  0.1953
15197SOL    HW147032   5.907   3.801  12.233 -0.5191 -0.0827  1.3096
15197SOL    HW247033   5.812   3.915  12.202  0.1966  0.2537  0.3001
15198SOL     OW47034   2.827   4.738   5.073 -0.1733  0.2506 -0.6628
15198SOL    HW147035   2.819   4.830   5.099 -0.2409  0.6183 -1.9310
15198SOL    HW247036   2.922   4.722   5.071 -0.1524  0.3927 -0.7952
15199SOL     OW47037   7.574   1.230   2.005 -0.3756 -0.5501  0.3190
15199SOL    HW147038   7.655   1.279   2.020 -0.6877  0.1157 -0.1465
15199SOL    HW247039   7.579   1.157   2.067 -0.5101  0.7997  1.9961
15200SOL     OW47040   6.476   0.126   3.104 -0.1706  0.3211  0.0202
15200SOL    HW147041   6.532   0.193   3.143 -0.2652  0.9446 -0.8688
15200SOL    HW247042   6.512   0.113   3.016 -0.5362 -0.3412 -0.0368
15201SOL     OW47043   0.004   3.270   6.151  0.4296  0.2731  0.2682
15201SOL    HW147044   0.047   3.233   6.228  1.8121 -1.8384 -1.3830
15201SOL    HW247045   0.074   3.313   6.102 -0.0228 -0.0364 -0.6936
15202SOL     OW47046   6.468   1.545  11.854 -0.4863  0.4466 -0.2086
15202SOL    HW147047   6.551   1.577  11.818  0.6651 -1.4025  0.6419
15202SOL    HW247048   6.440   1.614  11.914  0.5788  0.9958 -0.3124
15203SOL     OW47049   5.749   7.823   3.754 -0.2229  0.2444 -0.4446
15203SOL    HW147050   5.762   7.779   3.838  0.3079 -0.6138 -0.9646
15203SOL    HW247051   5.777   7.759   3.689 -0.0966  1.1054 -1.2520
15204SOL     OW47052   3.323   1.469   8.484  0.0783  0.3549 -0.0849
15204SOL    HW147053   3.269   1.476   8.563 -2.2663 -1.6335 -1.4025
15204SOL    HW247054   3.355   1.558   8.470 -0.7302  1.0894  2.1881
15205SOL     OW47055   3.240   4.613   8.093 -0.4778  0.3905 -0.3648
15205SOL    HW147056   3.217   4.690   8.042 -1.9571  0.4795  0.4017
15205SOL    HW247057   3.200   4.540   8.046 -0.4985  0.2836 -0.1819
15206SOL     OW47058   4.185   6.504  10.381  0.3039 -0.3453 -0.0288
15206SOL    HW147059   4.098   6.478  10.352 -1.1139  1.8621  1.9224
15206SOL    HW247060   4.239   6.426  10.367 -1.5903 -1.3139 -2.6544
15207SOL     OW47061   5.391   1.054  10.917  0.0282 -0.0735  0.1585
15207SOL    HW147062   5.440   1.124  10.875  1.9026  0.2562  2.6658
15207SOL    HW247063   5.443   0.975  10.899 -0.6645 -0.3933 -0.4662
15208SOL     OW47064   5.406   2.204   4.837  0.3208  0.4567  0.0790
15208SOL    HW147065   5.460   2.126   4.851  0.6923  0.9346  1.4149
15208SOL    HW247066   5.334   2.173   4.782  0.8658 -0.6564 -0.0396
15209SOL     OW47067   7.213   1.168   0.782  0.0591  0.2214  0.7487
15209SOL    HW147068   7.306   1.147   0.778 -0.0913 -0.2580 -1.3794
15209SOL    HW247069   7.171   1.101   0.728 -1.8925 -1.1990  3.7582
15210SOL     OW47070   2.829   1.509   3.008 -0.1677  0.0558 -0.2699
15210SOL    HW147071   2.762   1.570   3.039  0.7301  0.0886  1.6946
15210SOL    HW247072   2.819   1.432   3.063  1.8971  0.3673  0.6390
15211SOL     OW47073   6.959   2.942   8.910  0.0291  0.3998 -0.3938
15211SOL    HW147074   6.917   2.974   8.830  0.6514 -1.3272 -1.4786
15211SOL    HW247075   6.923   2.997   8.980 -0.1123  2.3404 -1.8974
15212SOL     OW47076   7.261   7.464  10.154 -0.2382 -0.5635 -0.5248
15212SOL    HW147077   7.177   7.452  10.198  0.0873 -0.1429  0.2293
15212SOL    HW247078   7.302   7.537  10.201  0.8734 -1.2602 -0.3950
15213SOL     OW47079   3.551   7.833   9.246 -0.2507  0.0468 -0.3550
15213SOL    HW147080   3.606   7.827   9.167  0.6659  0.5850  0.2259
15213SOL    HW247081   3.599   7.891   9.304 -0.8034 -0.5332  0.7079
15214SOL     OW47082   1.203   0.758   7.536 -0.2160  0.0080 -0.1156
15214SOL    HW147083   1.135   0.714   7.588 -0.5932  2.1413  1.3649
15214SOL    HW247084   1.284   0.743   7.584 -0.1985  0.1708 -0.0930
15215SOL     OW47085   1.752   6.101   0.093 -0.4686 -0.0181  0.1954
15215SOL    HW147086   1.764   6.106  -0.002 -1.5266 -0.3470  0.0283
15215SOL    HW247087   1.832   6.138   0.129  0.3280 -0.6886 -0.8181
15216SOL     OW47088   0.104   1.322   1.412  0.3710 -0.8012 -0.4639
15216SOL    HW147089   0.065   1.406   1.435  0.5694 -0.4403 -1.4034
15216SOL    HW247090   0.196   1.331   1.439 -0.0665 -1.5474  1.4814
15217SOL     OW47091   5.992   6.120   7.900  0.3767 -0.3803  0.1783
15217SOL    HW147092   5.941   6.077   7.969  0.7836 -1.4038 -0.1589
15217SOL    HW247093   6.072   6.149   7.944  0.0827  0.0909  0.4144
15218SOL     OW47094   0.506   6.522   7.731  0.1823  0.2108  0.7482
15218SOL    HW147095   0.451   6.488   7.802 -1.3216  1.4668  0.2474
15218SOL    HW247096   0.482   6.614   7.725  0.8119  0.2883 -0.9219
15219SOL     OW47097   1.827   2.465  11.858 -0.0204  0.2382 -0.5227
15219SOL    HW147098   1.743   2.487  11.818 -0.0931  0.1302 -0.4282
15219SOL    HW247099   1.831   2.517  11.938 -0.5905 -0.7490  0.1723
15220SOL     OW47100   3.555   3.023  10.602 -0.3352 -0.0405 -0.5783
15220SOL    HW147101   3.619   3.045  10.535  0.8779 -0.1126  0.5152
15220SOL    HW247102   3.525   3.108  10.635  0.7455  0.0279  0.3028
15221SOL     OW47103   3.133   7.304   2.258  0.1787  0.0415 -0.0481
15221SOL    HW147104   3.157   7.313   2.166  1.6560  1.4351  0.4273
15221SOL    HW247105   3.194   7.361   2.305 -0.2123 -1.0091  1.8600
15222SOL     OW47106   3.808   7.152   7.017  0.1598  0.1716 -0.4335
15222SOL    HW147107   3.747   7.097   7.066 -1.0442  1.8306 -0.0148
15222SOL    HW247108   3.889   7.101   7.015 -0.2101 -0.6354  1.9269
15223SOL     OW47109   3.575   3.113  11.766  0.7000 -0.0693 -0.4916
15223SOL    HW147110   3.601   3.030  11.807 -2.2050 -1.7252 -1.6956
15223SOL    HW247111   3.545   3.167  11.839 -1.4360 -1.7832  0.0035
15224SOL     OW47112   4.770   1.572  11.464 -0.3542  0.0340 -0.4116
15224SOL    HW147113   4.859   1.541  11.478 -1.0668 -1.1081  2.1821
15224SOL    HW247114   4.781   1.654  11.415  2.2511  0.9509  1.4849
15225SOL     OW47115   0.711   6.686   9.454 -0.2984  0.0846 -0.1677
15225SOL    HW147116   0.688   6.724   9.539  1.5150  1.6375 -0.3259
15225SOL    HW247117   0.781   6.624   9.473  1.1191  1.4765 -0.6433
15226SOL     OW47118   7.046   6.185   5.463 -0.0855 -0.5545  1.0989
15226SOL    HW147119   7.062   6.101   5.420  1.7064 -0.4497  1.4663
15226SOL    HW247120   7.045   6.249   5.392  0.0965 -0.7001  0.9650
15227SOL     OW47121   6.980   5.659   6.471 -0.2508 -0.0858  0.0333
15227SOL    HW147122   7.066   5.698   6.485 -0.0137 -1.0182  1.4340
15227SOL    HW247123   6.995   5.565   6.477 -1.3778 -0.2570  0.4711
15228SOL     OW47124   0.844   4.110  11.463  0.1470 -0.4206  0.0903
15228SOL    HW147125   0.924   4.151  11.432 -0.8089 -0.3431 -2.5513
15228SOL    HW247126   0.828   4.148  11.549  2.2127  0.5350  0.0945
15229SOL     OW47127   5.208   7.610   9.439  0.5145  0.4492 -0.1947
15229SOL    HW147128   5.282   7.669   9.423  0.4342  0.6781  0.2709
15229SOL    HW247129   5.246   7.522   9.430  0.6132  0.5605 -0.9815
15230SOL     OW47130   7.668   5.520   3.444  0.1806  0.0543  0.4171
15230SOL    HW147131   7.749   5.540   3.491  0.1438 -2.1315  1.5469
15230SOL    HW247132   7.679   5.563   3.359  2.5575 -0.1964  0.5144
15231SOL     OW47133   3.701   5.570  10.163 -0.2428 -0.4746  0.1581
15231SOL    HW147134   3.701   5.506  10.234 -3.6369  0.0486  0.8197
15231SOL    HW247135   3.730   5.651  10.204  0.8343 -0.8450  0.1465
15232SOL     OW47136   6.709   6.315   1.117  0.2418 -0.1831 -0.0887
15232SOL    HW147137   6.765   6.382   1.077 -1.3826  1.5976  0.4364
15232SOL    HW247138   6.711   6.336   1.210  0.4629 -1.5072  0.2165
15233SOL     OW47139   4.648   7.079   4.811  0.3944 -0.3346  0.1122
15233SOL    HW147140   4.712   7.077   4.740  2.8098 -1.1521  2.1466
15233SOL    HW247141   4.645   7.170   4.838 -0.4030 -0.0510 -0.8669
15234SOL     OW47142   2.720   2.137   0.984  0.4524 -0.1281  0.0874
15234SOL    HW147143   2.673   2.093   0.913  0.6295 -0.2453  0.0401
15234SOL    HW247144   2.653   2.158   1.049  0.0232  1.3562 -0.7857
15235SOL     OW47145   5.364   4.986   9.229  0.3322 -0.2982  0.1776
15235SOL    HW147146   5.277   4.999   9.191  0.3895  2.1668  0.6730
15235SOL    HW247147   5.406   5.072   9.220  2.0824 -0.9662  1.4886
15236SOL     OW47148   4.642   3.017   8.251 -0.0040  0.1537  0.2018
15236SOL    HW147149   4.618   3.104   8.218 -0.0964  0.1753  0.3215
15236SOL    HW247150   4.601   3.013   8.338 -0.1987 -0.0989  0.1010
15237SOL     OW47151   3.615   6.701   4.008 -0.2786 -0.6782  0.0088
15237SOL    HW147152   3.552   6.631   4.023  1.3324 -1.8994  1.4983
15237SOL    HW247153   3.689   6.659   3.963  0.4082  0.1969  0.2830
15238SOL     OW47154   6.348   6.630  11.832  0.2979  0.1662  0.1773
15238SOL    HW147155   6.330   6.652  11.741 -0.5721 -1.2497 -0.0129
15238SOL    HW247156   6.373   6.538  11.831  0.5492  0.2050  1.3434
15239SOL     OW47157   0.910   2.135   7.138 -0.1205  0.0739 -0.0950
15239SOL    HW147158   0.832   2.138   7.084  0.7097  0.2577 -1.3346
15239SOL    HW247159   0.885   2.085   7.215 -1.4535  0.1650 -0.4557
15240SOL     OW47160   6.326   6.046   4.626 -0.2994 -0.0215  0.1650
15240SOL    HW147161   6.261   5.989   4.668 -1.0211  0.5504 -0.1632
15240SOL    HW247162   6.294   6.057   4.537 -0.9218  1.9976  0.5838
15241SOL     OW47163   3.099   7.499   0.949 -0.2270  0.0690  0.0633
15241SOL    HW147164   3.060   7.570   0.999  2.1020  1.4101  0.1268
15241SOL    HW247165   3.046   7.422   0.971 -0.4916  0.9853  3.0352
15242SOL     OW47166   4.867   7.826   0.966  0.0453 -0.0416  0.2656
15242SOL    HW147167   4.905   7.888   1.028 -1.9571  0.2041  1.3348
15242SOL    HW247168   4.783   7.801   1.005 -0.9099 -0.5437 -1.9408
15243SOL     OW47169   3.989   0.826   5.596  0.2866  0.2228  0.1014
15243SOL    HW147170   3.997   0.828   5.501  1.4225  0.9006  0.1984
15243SOL    HW247171   3.910   0.775   5.612  1.2125 -1.7480 -1.1486
15244SOL     OW47172   5.880   2.642   8.998 -0.2943 -0.6136 -0.2734
15244SOL    HW147173   5.805   2.654   9.056 -0.4955 -1.8122 -0.2495
15244SOL    HW247174   5.848   2.669   8.911  0.1744  1.7106  0.2133
15245SOL     OW47175   6.781   4.727   9.509  0.0149 -0.1391 -0.5728
15245SOL    HW147176   6.807   4.801   9.454 -0.2961  0.4222  0.0325
15245SOL    HW247177   6.813   4.650   9.461  3.2807  0.5073  0.3146
15246SOL     OW47178   3.094   1.476   2.953  0.9562  0.2054 -0.4277
15246SOL    HW147179   3.108   1.458   2.860 -1.2459  0.7403 -0.9192
15246SOL    HW247180   3.001   1.460   2.967  1.0410  1.0646  1.4738
15247SOL     OW47181   3.656   0.693  11.964 -0.0533 -0.0400 -0.1801
15247SOL    HW147182   3.560   0.696  11.964 -0.0391  0.3805 -0.7578
15247SOL    HW247183   3.676   0.610  12.007 -0.6953 -0.6917 -1.0964
15248SOL     OW47184   3.492   1.104   0.064 -0.2793  0.0068 -0.3365
15248SOL    HW147185   3.445   1.087  -0.018 -1.0454 -0.8240  0.2516
15248SOL    HW247186   3.458   1.188   0.095  0.6544  0.7654 -1.2929
15249SOL     OW47187   6.353   2.139   6.795  0.0837 -0.4033 -0.5626
15249SOL    HW147188   6.338   2.145   6.701 -1.6185 -1.5768 -0.4140
15249SOL    HW247189   6.418   2.070   6.804  0.2302 -0.3089 -0.8765
15250SOL     OW47190   7.860   4.469   7.802  0.0137 -0.0248  0.5493
15250SOL    HW147191   7.898   4.466   7.714  0.5729  1.1292  0.7376
15250SOL    HW247192   7.767   4.448   7.789  0.2103 -0.4438 -0.2325
15251SOL     OW47193   1.705   4.180  10.724  0.1686 -0.3927 -0.2412
15251SOL    HW147194   1.676   4.231  10.800  0.4164 -0.7401  0.0893
15251SOL    HW247195   1.751   4.243  10.669  0.2937 -0.2074  0.0702
15252SOL     OW47196   7.334   1.478   4.563 -0.2481 -0.0954  0.0349
15252SOL    HW147197   7.320   1.383   4.557 -0.0736 -0.1224  0.0340
15252SOL    HW247198   7.260   1.510   4.615 -0.3314 -0.2265 -0.0029
15253SOL     OW47199   0.430   6.788   7.795 -0.3346  0.2655 -0.3338
15253SOL    HW147200   0.403   6.842   7.870 -0.1367  0.6430 -0.5289
15253SOL    HW247201   0.526   6.795   7.794 -0.0567 -2.1470  1.1794
15254SOL     OW47202   2.289   1.766   6.905 -0.1368  0.3676 -0.2060
15254SOL    HW147203   2.276   1.787   6.998 -1.9314 -0.2472 -0.2845
15254SOL    HW247204   2.380   1.735   6.901  0.6823  2.4053  0.9349
15255SOL     OW47205   7.683   0.782   3.229  0.2405  0.0025  0.1941
15255SOL    HW147206   7.727   0.740   3.155 -0.2420 -0.4382  0.1475
15255SOL    HW247207   7.590   0.779   3.206  0.1644  0.7389  0.3806
15256SOL     OW47208   6.488   1.906   9.781 -0.4935 -0.2183 -0.5941
15256SOL    HW147209   6.411   1.877   9.731 -1.0446  0.6320 -0.2736
15256SOL    HW247210   6.561   1.893   9.722 -0.9515 -0.5783 -1.0943
15257SOL     OW47211   1.363   0.104   0.904 -0.0308 -0.0990 -0.2839
15257SOL    HW147212   1.439   0.135   0.855 -0.2008 -1.4580 -1.4631
15257SOL    HW247213   1.321   0.040   0.846  0.2053 -2.4117  1.9181
15258SOL     OW47214   1.362   5.562   3.138 -0.1060 -0.7031  0.3953
15258SOL    HW147215   1.268   5.567   3.121 -0.0750  1.1428  0.5683
15258SOL    HW247216   1.401   5.624   3.077  0.7282  0.3929  1.9765
15259SOL     OW47217   2.721   5.700   2.680 -0.4423 -0.4930 -0.1323
15259SOL    HW147218   2.649   5.700   2.744 -0.4053  0.3623 -0.0846
15259SOL    HW247219   2.794   5.659   2.727 -0.4854 -0.0871  0.2954
15260SOL     OW47220   4.125   7.840   8.907  0.4499 -0.4913  0.2317
15260SOL    HW147221   4.112   7.810   8.997 -1.2171 -0.6750 -0.0433
15260SOL    HW247222   4.220   7.839   8.895  1.1869  3.6468  3.3829
15261SOL     OW47223   6.503   0.818   8.139 -0.1836 -0.1664  0.0991
15261SOL    HW147224   6.541   0.891   8.090 -0.8440 -0.1751 -0.4318
15261SOL    HW247225   6.561   0.808   8.215 -0.1298  0.9468  0.2171
15262SOL     OW47226   4.445   0.764   6.599 -0.2676  0.2780  0.5872
15262SOL    HW147227   4.508   0.719   6.655 -0.7025  0.8710  1.5679
15262SOL    HW247228   4.428   0.847   6.643 -2.9947 -0.5367  1.2527
15263SOL     OW47229   6.794   7.883   5.868 -0.1182 -0.0077 -0.0863
15263SOL    HW147230   6.767   7.974   5.860  0.1788 -0.0004 -1.1627
15263SOL    HW247231   6.841   7.879   5.951 -0.1645  0.8051 -0.0131
15264SOL     OW47232   5.589   2.364   0.242  0.6304 -0.1945 -0.0485
15264SOL    HW147233   5.629   2.447   0.270  0.9155 -0.0703 -0.8099
15264SOL    HW247234   5.659   2.318   0.197 -0.2346  0.3141 -2.0213
15265SOL     OW47235   7.829   5.675   5.677  0.7012 -0.3859  0.2546
15265SOL    HW147236   7.797   5.726   5.603 -0.2119 -0.1425  0.7999
15265SOL    HW247237   7.844   5.740   5.747 -0.9787 -0.8807  1.1260
15266SOL     OW47238   2.962   2.283   5.709  0.3566 -0.2434  0.1342
15266SOL    HW147239   3.052   2.283   5.675 -0.2700 -1.1935 -1.6304
15266SOL    HW247240   2.930   2.194   5.693 -1.1720  0.3030 -0.0152
15267SOL     OW47241   2.057   3.538   5.390 -0.3034 -0.0974  0.1916
15267SOL    HW147242   2.017   3.526   5.304  0.9516 -2.2388 -0.1708
15267SOL    HW247243   2.125   3.605   5.376 -0.5928  0.0982 -0.3003
15268SOL     OW47244   4.715   7.686   4.031 -0.2274  0.3418 -0.2659
15268SOL    HW147245   4.735   7.710   3.941 -0.6649 -0.0502 -0.4708
15268SOL    HW247246   4.793   7.711   4.081 -0.3867  1.5299 -0.5818
15269SOL     OW47247   4.587   6.013   4.138  0.9229  0.2526 -0.1803
15269SOL    HW147248   4.681   6.000   4.153  0.6542 -0.9967  0.6055
15269SOL    HW247249   4.563   5.944   4.076  0.3963  0.1134  0.1749
15270SOL     OW47250   6.144   6.070   7.182  0.5031 -0.3964 -0.6635
15270SOL    HW147251   6.142   5.974   7.182  0.1505 -0.4070 -2.1232
15270SOL    HW247252   6.052   6.096   7.191  0.7090 -0.1626  1.0020
15271SOL     OW47253   5.049   4.009   2.569 -0.2371 -0.0310 -0.4454
15271SOL    HW147254   5.041   3.958   2.650 -0.8365 -1.6781 -1.4955
15271SOL    HW247255   5.141   3.998   2.543 -0.1320  0.2157 -0.1930
15272SOL     OW47256   2.635   6.829   5.012 -0.3785 -0.4826 -0.4432
15272SOL    HW147257   2.581   6.778   5.072 -0.5953 -0.0628 -0.2761
15272SOL    HW247258   2.574   6.890   4.970  0.0074  0.1973 -0.0322
15273SOL     OW47259   6.807   1.603   7.026 -0.0411  0.0239 -0.3823
15273SOL    HW147260   6.873   1.568   6.966  0.1643 -0.0636 -0.1061
15273SOL    HW247261   6.752   1.659   6.971  1.3020  1.5000 -0.3178
15274SOL     OW47262   7.486   2.142   8.144 -0.1434  0.0910 -0.1452
15274SOL    HW147263   7.414   2.108   8.198  0.3190 -0.6182  0.0252
15274SOL    HW247264   7.486   2.086   8.067 -0.6514  0.9568 -0.7929
15275SOL     OW47265   4.718   2.364  11.212  0.0707  0.1737 -0.0998
15275SOL    HW147266   4.650   2.298  11.225 -1.0268  1.3807  0.4737
15275SOL    HW247267   4.773   2.357  11.290 -1.3866  1.4473  1.1076
15276SOL     OW47268   0.642   2.813   8.357 -0.5242  0.6015 -1.0079
15276SOL    HW147269   0.584   2.753   8.311 -1.5441  0.5660  0.2846
15276SOL    HW247270   0.722   2.814   8.304 -0.3459 -2.1294 -0.9150
15277SOL     OW47271   5.739   5.415   6.175 -0.3611  0.5907 -0.1854
15277SOL    HW147272   5.688   5.399   6.255 -0.6404 -2.9554 -0.9345
15277SOL    HW247273   5.676   5.452   6.113 -1.3170 -0.9459 -0.1646
15278SOL     OW47274   3.044   7.618   8.428 -0.5290  0.0962  0.1967
15278SOL    HW147275   3.010   7.647   8.513 -2.1855 -0.5241 -0.2257
15278SOL    HW247276   3.131   7.659   8.422 -2.0548  3.7303  0.2889
15279SOL     OW47277   7.116   0.662  10.256 -0.2741 -0.2993  0.3204
15279SOL    HW147278   7.131   0.702  10.170 -0.6390  0.7793  0.7373
15279SOL    HW247279   7.160   0.578  10.251 -0.4431 -0.3350 -0.9903
15280SOL     OW47280   1.600   4.757   2.584 -0.1651  0.5262  0.3397
15280SOL    HW147281   1.548   4.826   2.543  0.1391  1.4648  1.4664
15280SOL    HW247282   1.626   4.699   2.512 -2.5231  0.1726 -0.2995
15281SOL     OW47283   1.282   1.878   4.806 -0.4815  0.2602 -0.5867
15281SOL    HW147284   1.304   1.843   4.892 -0.4641  0.2811 -0.5824
15281SOL    HW247285   1.275   1.972   4.820  2.4907  0.6801 -1.1639
15282SOL     OW47286   6.297   4.596  10.310  0.0053 -0.5092 -0.0692
15282SOL    HW147287   6.301   4.520  10.369 -0.2762 -0.0604  0.5376
15282SOL    HW247288   6.276   4.670  10.368  0.2388  0.0247 -0.6600
15283SOL     OW47289   2.283   7.621   0.487  0.0266 -0.7850  0.2117
15283SOL    HW147290   2.200   7.661   0.515 -0.6762 -2.1755  0.1660
15283SOL    HW247291   2.277   7.619   0.391  0.0290 -1.0534  0.2165
15284SOL     OW47292   3.526   2.931   8.733  0.4827  0.2989  0.1764
15284SOL    HW147293   3.503   2.841   8.710 -0.2995  0.6671 -0.5541
15284SOL    HW247294   3.618   2.926   8.760  0.4462 -0.7135  0.1547
15285SOL     OW47295   7.461   2.654   0.832 -0.2177  0.2079 -0.1000
15285SOL    HW147296   7.377   2.619   0.803  0.0619 -2.0642  1.4909
15285SOL    HW247297   7.459   2.645   0.928  2.2787 -1.1569 -0.0709
15286SOL     OW47298   1.595   5.942  12.232 -0.0383 -0.3132 -0.3267
15286SOL    HW147299   1.538   5.937  12.155 -0.8487 -0.0093  0.2403
15286SOL    HW247300   1.658   6.011  12.212 -0.7793  0.3584 -0.3708
15287SOL     OW47301   3.869   3.906   9.785 -0.1527 -0.3642  0.3398
15287SOL    HW147302   3.791   3.936   9.739  0.0579 -0.9830 -0.4462
15287SOL    HW247303   3.936   3.970   9.763  0.0586 -0.8858 -0.5868
15288SOL     OW47304   1.144   5.775  12.302 -0.1337  0.2699 -0.0669
15288SOL    HW147305   1.145   5.846  12.238 -0.2209  0.4231  0.1036
15288SOL    HW247306   1.080   5.713  12.267  0.8005 -0.2959 -0.8365
15289SOL     OW47307   5.052   0.846   5.192  0.2382  0.1982 -0.1177
15289SOL    HW147308   5.010   0.924   5.228  2.0107  0.1731  2.2508
15289SOL    HW247309   4.984   0.778   5.195 -0.3325  0.7907  1.1563
15290SOL     OW47310   2.253   0.343   8.736 -0.6987  0.3555  0.0520
15290SOL    HW147311   2.177   0.401   8.739 -0.7281  0.3271 -0.1029
15290SOL    HW247312   2.245   0.298   8.651 -1.7775 -1.3584  1.0047
15291SOL     OW47313   4.429   5.893   8.434 -0.0843  0.3179  0.1385
15291SOL    HW147314   4.347   5.846   8.420  0.1132 -0.1494  0.5324
15291SOL    HW247315   4.456   5.920   8.346 -0.8266  0.7666  0.0407
15292SOL     OW47316   3.967   5.168   9.698  0.3006  0.2143  0.2833
15292SOL    HW147317   4.004   5.245   9.740  2.0215 -0.5187  0.1812
15292SOL    HW247318   3.940   5.112   9.771 -0.5186  0.6915  0.3580
15293SOL     OW47319   0.250   4.217  11.792 -0.1151  0.0457  0.4299
15293SOL    HW147320   0.321   4.159  11.821  1.1064  1.6764  0.8260
15293SOL    HW247321   0.258   4.295  11.847 -2.2226  0.3018  0.4686
15294SOL     OW47322   7.246   2.228   7.645 -0.3368 -0.0127  0.3378
15294SOL    HW147323   7.238   2.221   7.549 -3.1856  0.7372  0.4525
15294SOL    HW247324   7.300   2.306   7.658  0.1087 -0.1305 -0.6375
15295SOL     OW47325   0.603   0.966   3.480 -0.2505 -0.2333  0.7576
15295SOL    HW147326   0.676   0.929   3.529 -0.0579  0.3211  0.8946
15295SOL    HW247327   0.527   0.915   3.508 -0.2589  0.5030  2.1326
15296SOL     OW47328   6.889   5.709   0.220  0.0388  0.5753  0.2576
15296SOL    HW147329   6.974   5.673   0.194 -0.7251 -1.5817  0.5997
15296SOL    HW247330   6.884   5.692   0.314 -0.8798  0.4359  0.1933
15297SOL     OW47331   1.186   6.795   6.865 -0.6629 -0.4380  0.6101
15297SOL    HW147332   1.263   6.758   6.907 -0.8058  1.8547  3.1735
15297SOL    HW247333   1.197   6.890   6.872 -1.9939  0.0613 -2.3486
15298SOL     OW47334   3.210   2.186   3.222 -0.1974 -0.3907 -0.0427
15298SOL    HW147335   3.119   2.190   3.194 -0.4506 -0.2287  0.7759
15298SOL    HW247336   3.230   2.093   3.226  0.1296 -0.4262 -1.5961
15299SOL     OW47337   5.704   0.478   3.298  0.3463 -0.0139 -0.0346
15299SOL    HW147338   5.753   0.441   3.225  1.3077  0.6983  0.2411
15299SOL    HW247339   5.692   0.404   3.358 -2.7025 -1.3237 -1.9665
15300SOL     OW47340   3.195   0.798  10.447  0.3245 -0.0712 -0.0365
15300SOL    HW147341   3.283   0.768  10.471  0.8507  1.0684 -0.4859
15300SOL    HW247342   3.157   0.724  10.400  1.4986 -0.1609 -0.8954
15301SOL     OW47343   5.642   1.510   7.856  0.1261  0.1949 -0.4268
15301SOL    HW147344   5.617   1.588   7.904  0.1499  0.0950 -0.2518
15301SOL    HW247345   5.607   1.524   7.768  0.2099  0.4418 -0.4222
15302SOL     OW47346   2.908   3.388   7.072  0.0571 -0.0720 -0.0524
15302SOL    HW147347   2.923   3.467   7.020 -0.6794 -0.5345 -0.9980
15302SOL    HW247348   2.992   3.342   7.069  0.6388  0.8911  0.9099
15303SOL     OW47349   0.238   3.407  10.290 -0.2016 -0.6370 -0.2158
15303SOL    HW147350   0.333   3.405  10.282 -0.2677  0.7856 -1.9229
15303SOL    HW247351   0.206   3.354  10.217 -0.7173 -0.1549 -0.3504
15304SOL     OW47352   6.601   4.924  11.952  0.0767  0.0525 -0.1323
15304SOL    HW147353   6.631   4.859  12.016  3.4397  2.1946  0.7726
15304SOL    HW247354   6.644   4.899  11.870 -1.6606 -0.8691 -0.8217
15305SOL     OW47355   5.620   3.025   2.358  0.4350 -0.5526  0.0261
15305SOL    HW147356   5.664   3.016   2.443 -0.5337 -2.8006  0.3617
15305SOL    HW247357   5.689   3.008   2.294  0.7404 -0.9088  0.4391
15306SOL     OW47358   4.063   0.929   5.976  0.2341  0.1919  0.2970
15306SOL    HW147359   4.131   0.908   6.040  2.4469  1.1515 -1.5980
15306SOL    HW247360   4.057   1.024   5.978  0.3267  0.2343 -0.8887
15307SOL     OW47361   6.325   5.055   5.317 -0.3194  0.3982 -0.0923
15307SOL    HW147362   6.416   5.057   5.349  0.5209 -1.2187 -2.1788
15307SOL    HW247363   6.309   5.144   5.286 -0.2026  1.2449  2.0985
15308SOL     OW47364   0.258   7.850   9.617  0.4182 -0.4016  0.3035
15308SOL    HW147365   0.256   7.783   9.685 -0.6918  1.2257  1.9480
15308SOL    HW247366   0.333   7.905   9.640  0.0912  0.1116  0.1462
15309SOL     OW47367   0.665   3.438   7.770 -0.4125 -0.0194  0.1365
15309SOL    HW147368   0.628   3.493   7.701 -0.2336  1.1686  0.9515
15309SOL    HW247369   0.758   3.459   7.771 -0.3374 -0.3475  0.4463
15310SOL     OW47370   7.298   4.584   5.920 -0.5165 -0.3396  0.4786
15310SOL    HW147371   7.354   4.524   5.870 -2.1121 -1.9695  0.5561
15310SOL    HW247372   7.358   4.628   5.980  0.9363 -0.7563 -0.6037
15311SOL     OW47373   3.591   0.043   5.951 -0.0992 -0.1341 -0.4068
15311SOL    HW147374   3.571   0.123   5.999 -1.9958 -0.0418 -1.2510
15311SOL    HW247375   3.568   0.063   5.860 -0.9365 -1.7157 -0.5852
15312SOL     OW47376   2.515   0.011   7.391 -0.2307  0.4753  0.2223
15312SOL    HW147377   2.464  -0.027   7.463 -0.9928 -0.0909 -0.5875
15312SOL    HW247378   2.467   0.090   7.367  0.3890  1.0164  0.7709
15313SOL     OW47379   6.589   4.831   7.984  0.0750  0.4295  0.2586
15313SOL    HW147380   6.522   4.850   8.049 -0.6118  0.4493 -0.4383
15313SOL    HW247381   6.608   4.738   7.994 -2.7524 -0.5295 -1.9394
15314SOL     OW47382   1.613   7.782   9.083  0.3878  0.1872  0.0344
15314SOL    HW147383   1.656   7.698   9.096 -1.0960 -0.8646 -1.4084
15314SOL    HW247384   1.558   7.794   9.160 -1.6557 -1.6874 -1.0069
15315SOL     OW47385   1.136   4.467   2.690  0.4739  0.6044 -0.1417
15315SOL    HW147386   1.175   4.531   2.631 -0.8430  1.4990 -0.0841
15315SOL    HW247387   1.072   4.516   2.740 -0.7807 -0.7942 -0.2986
15316SOL     OW47388   0.116   1.056  11.769  0.2792  0.5988  0.3801
15316SOL    HW147389   0.194   1.068  11.715 -0.0747  2.1231  0.1531
15316SOL    HW247390   0.074   0.978  11.733  0.2060  1.4023 -1.4050
15317SOL     OW47391   2.710   4.254  10.228  0.2568  0.1540 -0.5871
15317SOL    HW147392   2.689   4.199  10.304 -0.2811  1.1870  0.0287
15317SOL    HW247393   2.789   4.215  10.191 -0.1727 -1.0996 -0.2351
15318SOL     OW47394   0.692   0.429   6.651 -0.3062  0.0594 -0.3231
15318SOL    HW147395   0.673   0.355   6.594  0.1777 -0.0715 -0.3201
15318SOL    HW247396   0.720   0.499   6.591 -1.9980  0.6745 -0.4487
15319SOL     OW47397   1.085   1.022   8.643  0.0717 -0.0787  0.3608
15319SOL    HW147398   1.130   1.096   8.683 -0.0754  0.1911  0.0342
15319SOL    HW247399   1.141   0.946   8.663  0.1812  0.1061  0.7634
15320SOL     OW47400   6.835   1.415   4.022  0.0196 -0.3770  0.4712
15320SOL    HW147401   6.792   1.329   4.028  0.9868 -0.9596 -0.5607
15320SOL    HW247402   6.876   1.414   3.936  1.1483  0.6157  0.9864
15321SOL     OW47403   6.677   6.110  11.380  0.1823  0.2515  0.0809
15321SOL    HW147404   6.609   6.043  11.370 -0.1913  0.0307  2.9584
15321SOL    HW247405   6.639   6.189  11.342 -0.4801 -0.5511 -0.9598
15322SOL     OW47406   3.075   6.752   4.538  0.1348 -0.1962 -0.0144
15322SOL    HW147407   3.111   6.793   4.459 -1.5475 -0.7615 -1.1287
15322SOL    HW247408   3.146   6.759   4.602  0.3757  3.4275 -0.4337
15323SOL     OW47409   0.925   3.809   5.572  0.9349 -0.3111 -0.4528
15323SOL    HW147410   0.986   3.777   5.506 -1.2621 -0.4504 -2.5594
15323SOL    HW247411   0.925   3.741   5.639  1.5808 -1.2955 -1.4093
15324SOL     OW47412   1.138   7.433   6.808 -0.4590  0.2745 -0.0968
15324SOL    HW147413   1.160   7.525   6.793  1.6171 -0.2422 -0.5750
15324SOL    HW247414   1.223   7.390   6.819 -1.4188 -1.4025  1.2902
15325SOL     OW47415   3.781   4.706   6.554 -0.2224  0.4315  0.3314
15325SOL    HW147416   3.838   4.669   6.621  1.3765 -0.1656 -1.2804
15325SOL    HW247417   3.724   4.634   6.528  0.0230  0.3141  0.1305
15326SOL     OW47418   7.292   2.967   4.437  0.4919  0.3350 -0.0289
15326SOL    HW147419   7.326   2.942   4.523 -0.2078 -0.8320 -0.0659
15326SOL    HW247420   7.331   2.902   4.377 -0.2271  0.2053 -0.3586
15327SOL     OW47421   0.503   5.248   6.233 -0.0093 -0.2708  0.1760
15327SOL    HW147422   0.481   5.165   6.191 -1.6666 -0.2260  0.9003
15327SOL    HW247423   0.581   5.229   6.285  0.2065 -1.1114 -0.4452
15328SOL     OW47424   5.988   1.585   7.004  0.3525 -0.0755  0.0083
15328SOL    HW147425   6.046   1.532   6.950 -0.1206 -1.5806  0.9082
15328SOL    HW247426   5.912   1.529   7.020  0.9461 -0.1902  3.1233
15329SOL     OW47427   2.268   1.151   9.787  0.0228 -0.5496 -0.1577
15329SOL    HW147428   2.320   1.217   9.831 -0.9354  1.0052 -1.2638
15329SOL    HW247429   2.218   1.199   9.721 -0.9529 -2.3270 -0.7937
15330SOL     OW47430   0.272   3.947   0.958 -0.3856  0.5309  0.0114
15330SOL    HW147431   0.208   3.945   0.887 -0.0723 -2.0935 -0.2869
15330SOL    HW247432   0.348   3.991   0.919 -0.4800 -0.2273 -1.0831
15331SOL     OW47433   1.077   1.295  12.067  0.1467 -0.5239  0.3414
15331SOL    HW147434   1.018   1.371  12.063  1.7011  0.7039 -0.8269
15331SOL    HW247435   1.076   1.268  12.158 -2.6267 -0.9371  0.2764
15332SOL     OW47436   7.096   1.297   4.347 -0.3749  0.6457 -0.6672
15332SOL    HW147437   7.009   1.266   4.373 -0.4329  1.3482  0.0360
15332SOL    HW247438   7.152   1.271   4.420  0.6239 -2.3827 -2.3650
15333SOL     OW47439   0.302   5.104   5.186 -0.4927  0.1013 -0.1389
15333SOL    HW147440   0.247   5.171   5.146  0.5537  0.2468 -1.3668
15333SOL    HW247441   0.250   5.024   5.181 -0.9648  0.4236 -0.4442
15334SOL     OW47442   5.543   0.680   7.903  0.1158 -0.0248  0.1773
15334SOL    HW147443   5.602   0.755   7.904 -0.2793  0.2900 -0.1348
15334SOL    HW247444   5.457   0.715   7.925 -0.0604 -0.3945  0.1019
15335SOL     OW47445   0.678   4.371   0.395  0.0958 -0.1990 -0.4875
15335SOL    HW147446   0.690   4.361   0.300  1.0109  0.8915 -0.5040
15335SOL    HW247447   0.656   4.283   0.425  1.1922 -0.8659 -1.5192
15336SOL     OW47448   1.520   7.043   8.783 -0.3253  0.5012 -0.2545
15336SOL    HW147449   1.470   7.125   8.784 -1.8231 -0.3615 -0.6300
15336SOL    HW247450   1.504   7.007   8.695 -0.3175 -0.5559  0.1728
15337SOL     OW47451   2.387   2.005   1.060  0.0584 -1.1583 -0.0535
15337SOL    HW147452   2.377   2.066   0.987 -1.3372  1.6900  2.2920
15337SOL    HW247453   2.308   1.950   1.056 -0.7585 -0.0212  0.1553
15338SOL     OW47454   1.798   5.125   2.460  0.5661 -0.0173  0.7528
15338SOL    HW147455   1.777   5.152   2.549 -1.6327 -3.3769  1.4372
15338SOL    HW247456   1.848   5.044   2.470  0.3225 -0.4397 -1.0392
15339SOL     OW47457   4.735   4.078  11.872 -0.1726  0.3236  0.4489
15339SOL    HW147458   4.751   4.014  11.941  1.4611  1.0494  0.7943
15339SOL    HW247459   4.752   4.163  11.913  1.3927  0.7425 -0.9669
15340SOL     OW47460   1.278   4.473   5.301  0.1669 -0.3775  0.4257
15340SOL    HW147461   1.245   4.444   5.217 -1.7972  1.4312  0.4900
15340SOL    HW247462   1.209   4.450   5.364  0.5248  0.4057  1.1359
15341SOL     OW47463   7.443   1.125   5.574 -0.6159 -0.2456  0.2022
15341SOL    HW147464   7.359   1.169   5.577  0.0771  1.2324 -0.8421
15341SOL    HW247465   7.453   1.097   5.483  0.6620  0.9576 -0.0536
15342SOL     OW47466   4.725   2.432   0.697 -0.0043  0.2369 -0.7755
15342SOL    HW147467   4.668   2.356   0.711  1.3999 -0.7951 -0.4394
15342SOL    HW247468   4.729   2.476   0.782 -1.2712  1.0474 -1.1087
15343SOL     OW47469   0.855   5.753   0.963  0.4793 -0.4335  0.5261
15343SOL    HW147470   0.860   5.838   0.919  1.0057 -2.7154 -4.5884
15343SOL    HW247471   0.762   5.731   0.964  0.4264 -0.2042  1.0399
15344SOL     OW47472   6.240   3.022   8.273 -0.1959 -0.1879  0.0849
15344SOL    HW147473   6.236   2.958   8.344  0.4124  0.2445  0.5129
15344SOL    HW247474   6.269   3.103   8.315 -1.1412  0.4305 -0.4179
15345SOL     OW47475   0.326   0.742   9.060  0.6249  0.1106  0.0773
15345SOL    HW147476   0.407   0.760   9.012  1.2337  0.6897  1.2754
15345SOL    HW247477   0.265   0.808   9.030  0.7756  0.0272 -0.4151
15346SOL     OW47478   5.448   1.087   5.549  0.1626 -0.1182  0.5338
15346SOL    HW147479   5.438   1.146   5.625 -0.9396  0.7073 -0.2200
15346SOL    HW247480   5.535   1.107   5.515 -0.2230  1.1639  0.2442
15347SOL     OW47481   5.393   5.747  10.129  0.1587 -0.7199 -0.5057
15347SOL    HW147482   5.371   5.733  10.037 -0.0679 -0.6884 -0.4566
15347SOL    HW247483   5.352   5.674  10.175  0.5375 -0.9098 -0.4646
15348SOL     OW47484   3.457   2.230   5.667 -0.3007 -0.2101  0.5750
15348SOL    HW147485   3.496   2.288   5.602 -1.9687  0.2727 -0.0500
15348SOL    HW247486   3.505   2.148   5.658  1.1561  0.6144  0.4981
15349SOL     OW47487   1.029   7.265   3.998 -0.0092 -0.2105 -0.4158
15349SOL    HW147488   1.081   7.297   4.071  2.1662 -0.6197 -1.6920
15349SOL    HW247489   0.974   7.197   4.035 -0.3413  0.8625  1.1715
15350SOL     OW47490   7.441   5.313  12.262  0.2440 -0.1153  0.2563
15350SOL    HW147491   7.412   5.403  12.274 -0.0111 -0.3107  1.1924
15350SOL    HW247492   7.440   5.275  12.350  4.6835  0.2636  0.7272
15351SOL     OW47493   1.284   2.757  11.277  0.3689 -0.5650 -0.1889
15351SOL    HW147494   1.322   2.740  11.190  1.6878 -0.9033  0.4285
15351SOL    HW247495   1.317   2.686  11.332  0.4369  0.2381  0.8342
15352SOL     OW47496   3.200   1.465   2.376 -0.3071 -0.3484  0.3199
15352SOL    HW147497   3.134   1.410   2.333 -1.9592  1.4674  0.3974
15352SOL    HW247498   3.220   1.533   2.312  0.3819 -0.0255  0.8649
15353SOL     OW47499   6.951   3.173   6.455  0.8074  0.0775 -0.1272
15353SOL    HW147500   6.944   3.090   6.502 -0.9453  0.1162 -0.2614
15353SOL    HW247501   6.875   3.174   6.397  0.4901  2.0273  0.2609
15354SOL     OW47502   3.962   1.367   7.513  0.6953  0.0101 -0.9681
15354SOL    HW147503   3.894   1.389   7.450 -0.7327 -0.2762  0.4183
15354SOL    HW247504   3.924   1.298   7.567  1.0254  1.6487  1.5333
15355SOL     OW47505   0.950   5.565   7.279  0.7682  0.1264 -0.1134
15355SOL    HW147506   0.928   5.610   7.360 -0.1866  1.0535 -0.8523
15355SOL    HW247507   1.008   5.625   7.233  0.4592  0.0878 -0.5678
15356SOL     OW47508   5.118   6.683   2.018  0.5513  0.1584  0.5332
15356SOL    HW147509   5.162   6.636   2.089 -0.5131 -1.0223  0.4305
15356SOL    HW247510   5.097   6.616   1.953  0.2886  1.0079 -0.2927
15357SOL     OW47511   2.890   6.790   6.893  0.4633  0.1546  0.1116
15357SOL    HW147512   2.933   6.832   6.819  0.7950 -1.1917 -0.4860
15357SOL    HW247513   2.885   6.858   6.960  0.7026  1.2155 -0.9285
15358SOL     OW47514   4.942   6.372  10.482  0.1926  0.2940 -0.4538
15358SOL    HW147515   4.910   6.462  10.488  1.5438  0.7495  0.5036
15358SOL    HW247516   5.036   6.380  10.465  0.1516 -0.9647 -1.4569
15359SOL     OW47517   2.685   5.241  11.967 -0.0144  0.2715 -0.0109
15359SOL    HW147518   2.727   5.241  12.052  2.0055 -0.6532 -0.9590
15359SOL    HW247519   2.601   5.285  11.982  0.5981  0.7799  2.2714
15360SOL     OW47520   7.402   1.944   3.770 -0.1356 -0.2592 -0.1306
15360SOL    HW147521   7.383   2.031   3.734 -2.0702 -0.6081 -0.0400
15360SOL    HW247522   7.392   1.955   3.865 -0.5939 -0.6307 -0.1363
15361SOL     OW47523   7.470   3.715   5.832  0.3671  0.0117  0.2185
15361SOL    HW147524   7.515   3.687   5.911 -0.4791 -0.7918  0.4398
15361SOL    HW247525   7.534   3.703   5.762  1.0731  0.5948  0.7590
15362SOL     OW47526   3.913   0.601   7.650 -0.2087  0.0597 -0.5015
15362SOL    HW147527   3.846   0.667   7.667  0.3864  0.5646 -0.0570
15362SOL    HW247528   3.875   0.519   7.683 -0.2119  0.5267  0.6987
15363SOL     OW47529   0.384   5.084   4.512  0.3244  0.3374  0.1204
15363SOL    HW147530   0.471   5.083   4.471  0.5199  1.4932  0.4947
15363SOL    HW247531   0.401   5.064   4.604  0.2013  0.6342  0.2066
15364SOL     OW47532   5.319   2.364   7.482 -0.5287  0.3244 -0.1753
15364SOL    HW147533   5.273   2.290   7.520  0.1182  0.4115  0.8008
15364SOL    HW247534   5.403   2.329   7.452 -0.7756  0.3870 -0.9818
15365SOL     OW47535   0.803   1.170   0.316  0.4524  0.4731  0.2510
15365SOL    HW147536   0.810   1.250   0.367  1.1799  0.1905  0.6071
15365SOL    HW247537   0.830   1.100   0.375 -2.0362 -0.3079  0.5585
15366SOL     OW47538   5.868   7.859  11.232 -0.0851 -0.2515  0.1708
15366SOL    HW147539   5.843   7.941  11.189  0.4185 -0.2565 -0.1356
15366SOL    HW247540   5.862   7.793  11.164 -0.4391 -0.4633  0.4065
15367SOL     OW47541   4.776   6.688   4.454  0.1758 -0.0945 -0.0001
15367SOL    HW147542   4.805   6.615   4.399 -0.3024 -0.7927  0.6431
15367SOL    HW247543   4.713   6.648   4.514 -0.6670  1.0022 -0.1259
15368SOL     OW47544   1.224   1.642   0.368  0.4693  0.1195 -0.6542
15368SOL    HW147545   1.212   1.632   0.274  0.3289 -1.1752 -0.5175
15368SOL    HW247546   1.276   1.721   0.377 -1.5941  1.7071 -1.6827
15369SOL     OW47547   4.193   4.730  10.459 -0.0470 -0.1586  0.3241
15369SOL    HW147548   4.213   4.674  10.384  0.2219 -1.1828  1.1474
15369SOL    HW247549   4.272   4.729  10.512 -0.7319 -0.6695  1.3792
15370SOL     OW47550   6.783   6.035   5.827  0.5899  0.1812  0.3456
15370SOL    HW147551   6.758   5.968   5.890  2.2988 -0.8626 -0.0133
15370SOL    HW247552   6.808   6.110   5.881  0.0059  0.0516  0.8079
15371SOL     OW47553   5.013   3.108   7.427 -0.3831 -0.2363  0.1783
15371SOL    HW147554   4.956   3.183   7.405  1.4871  0.9595 -0.9051
15371SOL    HW247555   5.041   3.126   7.517  0.6982  0.8707 -0.3417
15372SOL     OW47556   6.326   4.786   1.832  0.1821  0.6042 -0.4104
15372SOL    HW147557   6.241   4.798   1.876  0.2406  1.3779 -0.4922
15372SOL    HW247558   6.336   4.864   1.778  1.0970  0.6750 -0.1511
15373SOL     OW47559   5.057   6.973   7.541 -0.2868 -0.1636 -0.1844
15373SOL    HW147560   5.149   6.969   7.565 -0.7125  0.3801  1.7108
15373SOL    HW247561   5.043   6.898   7.484  1.2779 -0.3693 -0.3188
15374SOL     OW47562   1.342   6.434   1.933  0.1717  0.1572 -0.2325
15374SOL    HW147563   1.317   6.486   2.009 -0.4674  1.3577 -1.2204
15374SOL    HW247564   1.422   6.390   1.959 -0.5283 -0.2093  1.4558
15375SOL     OW47565   0.589   6.771   8.139 -0.9863  0.3179 -0.2876
15375SOL    HW147566   0.589   6.689   8.187 -0.1828  0.0236 -0.7692
15375SOL    HW247567   0.497   6.792   8.126 -1.1949 -0.3173  0.1494
15376SOL     OW47568   5.731   4.831   0.433  0.5685 -0.6679 -0.2346
15376SOL    HW147569   5.789   4.890   0.385  0.7328 -0.2266  0.4972
15376SOL    HW247570   5.777   4.746   0.431  0.7692 -0.5566 -0.4933
15377SOL     OW47571   2.700   2.594   7.470  0.0300  0.1783 -0.1486
15377SOL    HW147572   2.662   2.510   7.494  2.0747 -0.5465  0.7992
15377SOL    HW247573   2.709   2.641   7.553 -2.4562  2.0168 -0.8182
15378SOL     OW47574   6.537   5.090   9.091  0.2791  0.4317 -0.1000
15378SOL    HW147575   6.597   5.160   9.064 -0.1293  0.4605 -0.9632
15378SOL    HW247576   6.451   5.133   9.096  0.4865  0.7014  2.4060
15379SOL     OW47577   2.642   1.508   0.197  0.1237  0.4744 -0.5790
15379SOL    HW147578   2.706   1.578   0.185  0.1326  0.5687 -0.0117
15379SOL    HW247579   2.695   1.432   0.223  0.0947  0.3056 -1.0023
15380SOL     OW47580   2.366   0.936   9.661  0.6134  0.3970 -0.1445
15380SOL    HW147581   2.376   0.871   9.731  0.3889  0.6293  0.1049
15380SOL    HW247582   2.346   1.018   9.707 -3.5130 -0.1715 -0.5873
15381SOL     OW47583   3.178   3.236   1.246  0.1704 -0.0648 -0.0101
15381SOL    HW147584   3.128   3.216   1.325 -0.8841  0.8928 -0.4102
15381SOL    HW247585   3.190   3.331   1.249  1.2287 -0.1755 -0.3698
15382SOL     OW47586   7.043   5.456   3.316 -0.3348  0.8375 -0.0047
15382SOL    HW147587   6.985   5.383   3.339 -1.8357  2.6008  2.3680
15382SOL    HW247588   6.984   5.525   3.285  0.3030  2.7734  2.7049
15383SOL     OW47589   7.111   2.094   0.700 -0.2858  0.1541 -0.1928
15383SOL    HW147590   7.016   2.081   0.705 -0.0406 -1.9467  0.0036
15383SOL    HW247591   7.121   2.178   0.655 -2.2308  0.9499  0.7328
15384SOL     OW47592   1.710   1.754   5.340 -0.3920  0.1426  0.6069
15384SOL    HW147593   1.777   1.728   5.276 -0.6919  0.2244  0.2520
15384SOL    HW247594   1.649   1.680   5.342 -0.5881  0.3009  0.5125
15385SOL     OW47595   2.613   7.813   2.949 -0.1750 -0.4946 -0.3868
15385SOL    HW147596   2.616   7.797   2.854 -0.3220 -1.7008 -0.1921
15385SOL    HW247597   2.572   7.736   2.986 -1.5037  0.6098  0.5407
15386SOL     OW47598   1.338   6.663   0.916 -0.8252  0.0223  0.2790
15386SOL    HW147599   1.249   6.687   0.892 -0.3523  2.0324  0.2862
15386SOL    HW247600   1.332   6.632   1.006 -1.7319 -1.5881 -0.2950
15387SOL     OW47601   2.792   5.586   6.384 -1.2426 -0.0019  0.0934
15387SOL    HW147602   2.840   5.626   6.311 -0.3137 -1.8680 -0.3751
15387SOL    HW247603   2.702   5.580   6.353 -0.9043 -0.5346 -0.8106
15388SOL     OW47604   5.948   6.229   1.698  0.7564  0.1294  0.5548
15388SOL    HW147605   5.881   6.291   1.725 -0.3583 -0.8877  0.2129
15388SOL    HW247606   6.015   6.283   1.656 -1.2566  0.9590 -1.8726
15389SOL     OW47607   7.731   4.599   0.031 -0.2814  0.2307 -0.2157
15389SOL    HW147608   7.715   4.678  -0.020 -1.6555  0.7261  0.9171
15389SOL    HW247609   7.652   4.547   0.021  0.5364 -0.9418 -0.7955
15390SOL     OW47610   2.388   3.756  11.838  0.0011  0.4557  0.2918
15390SOL    HW147611   2.369   3.666  11.811  1.5576  0.1951 -0.0185
15390SOL    HW247612   2.304   3.790  11.867 -0.8758 -0.6934 -0.7710
15391SOL     OW47613   5.813   0.708   4.539 -0.2414  0.5496  1.0118
15391SOL    HW147614   5.882   0.674   4.481 -1.7991 -1.0972  0.0082
15391SOL    HW247615   5.836   0.675   4.625  0.9012  1.1348  0.9593
15392SOL     OW47616   4.179   7.540  10.174 -0.2124  0.1603 -0.0380
15392SOL    HW147617   4.155   7.453  10.205 -1.0733 -0.2063 -1.6594
15392SOL    HW247618   4.131   7.600  10.231 -1.3025 -0.4724 -0.2757
15393SOL     OW47619   1.083   4.810   2.221  0.3913 -0.0877  0.1774
15393SOL    HW147620   1.149   4.876   2.241 -0.7243  0.5888  1.8344
15393SOL    HW247621   1.004   4.860   2.202 -0.0196 -0.9249 -0.3984
15394SOL     OW47622   2.883   7.241   4.297 -0.1351 -0.2449 -0.5823
15394SOL    HW147623   2.823   7.242   4.223 -1.5593  0.3619  0.5173
15394SOL    HW247624   2.935   7.321   4.289  0.5346 -0.7582 -1.5252
15395SOL     OW47625   1.761   3.431   3.516 -0.1767  0.5307  0.3266
15395SOL    HW147626   1.805   3.362   3.468 -0.3438  0.5074  0.2063
15395SOL    HW247627   1.753   3.503   3.453 -0.2435  0.5618  0.3703
15396SOL     OW47628   0.385   0.579  12.109  0.5401 -0.2780  0.0302
15396SOL    HW147629   0.434   0.575  12.026  1.4523 -0.1040  0.5417
15396SOL    HW247630   0.319   0.646  12.094  1.3186  0.4551 -0.2528
15397SOL     OW47631   7.182   3.597   0.357 -0.1227 -0.0106 -0.0450
15397SOL    HW147632   7.202   3.646   0.436 -1.0788 -1.4487  1.1440
15397SOL    HW247633   7.267   3.570   0.323  0.4986  2.9935 -1.1767
15398SOL     OW47634   0.496   5.515   8.384  0.8467 -0.3231  0.0386
15398SOL    HW147635   0.497   5.435   8.438 -0.5030 -0.6075 -0.3278
15398SOL    HW247636   0.447   5.578   8.437  1.1841  0.0081 -0.0409
15399SOL     OW47637   3.354   6.170   5.459  0.2140 -0.0219  0.6930
15399SOL    HW147638   3.327   6.250   5.415  1.9127  0.5393  0.6239
15399SOL    HW247639   3.295   6.103   5.425  0.0729  0.8157 -0.7758
15400SOL     OW47640   5.336   3.557   0.339  0.1023 -0.1011  0.4829
15400SOL    HW147641   5.305   3.606   0.262  1.4485  1.0444  0.6368
15400SOL    HW247642   5.273   3.578   0.408 -0.4940 -0.2592  0.0007
15401SOL     OW47643   1.195   6.487   8.926  0.2995  0.5722  0.4388
15401SOL    HW147644   1.108   6.519   8.902  0.0574  0.2170  0.8358
15401SOL    HW247645   1.255   6.538   8.871 -0.2222 -0.0389 -0.7365
15402SOL     OW47646   0.782   6.218  11.068 -0.2383 -0.5781 -0.3083
15402SOL    HW147647   0.801   6.196  10.976  0.7991 -0.9849 -0.0111
15402SOL    HW247648   0.858   6.269  11.096 -0.9021  0.1936  0.1124
15403SOL     OW47649   3.977   4.116   0.184  0.2650 -0.8204  0.6315
15403SOL    HW147650   4.025   4.033   0.192  0.7097 -0.4423  2.1922
15403SOL    HW247651   3.892   4.099   0.223  0.7091 -0.2907  1.8770
15404SOL     OW47652   6.569   6.309   6.661  0.2279 -0.0728  0.2271
15404SOL    HW147653   6.488   6.352   6.688  0.4732  0.4714  0.1104
15404SOL    HW247654   6.591   6.350   6.577  0.0065 -1.0420 -0.3130
15405SOL     OW47655   6.714   7.741   1.609 -0.1037  0.5386 -0.1160
15405SOL    HW147656   6.676   7.828   1.626  0.2839  0.8766 -0.9370
15405SOL    HW247657   6.806   7.759   1.593  0.5567 -0.3206  2.2981
15406SOL     OW47658   6.707   1.803   6.459  0.5155 -0.2940 -0.2203
15406SOL    HW147659   6.682   1.864   6.389  1.8291 -0.8128 -1.1899
15406SOL    HW247660   6.628   1.751   6.474 -0.8459  1.9584  1.0627
15407SOL     OW47661   7.655   2.880   7.790  0.2060 -0.4722 -0.4001
15407SOL    HW147662   7.647   2.827   7.870  0.2794 -0.3784 -0.3313
15407SOL    HW247663   7.669   2.815   7.721 -0.8260 -0.6322 -0.4872
15408SOL     OW47664   1.266   0.197  10.550  0.4216 -0.3906 -0.3993
15408SOL    HW147665   1.301   0.259  10.614 -1.2965 -1.6502  1.9207
15408SOL    HW247666   1.302   0.112  10.576 -0.0261 -0.8871 -1.3407
15409SOL     OW47667   0.697   3.705   0.542 -0.4146  0.0944 -0.4544
15409SOL    HW147668   0.747   3.681   0.620  0.0218 -2.2712 -1.3858
15409SOL    HW247669   0.743   3.781   0.507  0.6146 -0.0725  0.4735
15410SOL     OW47670   6.736   5.330   7.415 -0.0991 -0.4094 -0.3628
15410SOL    HW147671   6.647   5.360   7.397  0.5002  0.6942 -1.6384
15410SOL    HW247672   6.732   5.296   7.505 -1.5006  0.8133  0.0842
15411SOL     OW47673   1.210   2.174  11.973  0.2416  0.2609  0.5658
15411SOL    HW147674   1.134   2.226  12.001 -0.1913 -0.3415  0.5468
15411SOL    HW247675   1.214   2.186  11.878 -0.5188 -0.5674  0.4050
15412SOL     OW47676   7.270   0.856   6.796  0.1375 -0.7392 -0.1266
15412SOL    HW147677   7.220   0.852   6.715  0.4907  2.8127 -0.6969
15412SOL    HW247678   7.209   0.892   6.861  0.7839 -0.2808  0.2429
15413SOL     OW47679   2.276   4.037   6.145  0.0137 -0.8391 -0.1974
15413SOL    HW147680   2.353   4.046   6.201 -0.6410  0.7731  0.5155
15413SOL    HW247681   2.234   3.956   6.174  0.0795 -0.4060  1.1826
15414SOL     OW47682   3.418   3.853   4.319  0.3265  0.7996 -0.1407
15414SOL    HW147683   3.389   3.803   4.242  0.2901  0.2405  0.2333
15414SOL    HW247684   3.500   3.811   4.344 -0.4350 -0.0417  1.0631
15415SOL     OW47685   1.421   1.316   5.363 -0.6102 -0.5562 -0.4342
15415SOL    HW147686   1.477   1.246   5.330  2.7161  2.3411 -1.5250
15415SOL    HW247687   1.423   1.306   5.458  2.1567 -0.4153 -0.4036
15416SOL     OW47688   3.809   1.372  12.296  0.0650 -0.0388 -0.1606
15416SOL    HW147689   3.839   1.284  12.319 -0.7182 -0.0346  0.9592
15416SOL    HW247690   3.736   1.357  12.237  0.7053 -0.1012 -0.9518
15417SOL     OW47691   5.226   7.082   9.785 -0.5486  0.0816 -0.6918
15417SOL    HW147692   5.174   7.155   9.820 -0.8768 -0.1642 -0.6687
15417SOL    HW247693   5.207   7.009   9.843  1.5276  0.5445  0.6932
15418SOL     OW47694   7.494   5.705  10.433 -0.2418  0.2461  0.1954
15418SOL    HW147695   7.483   5.792  10.471 -0.7573  0.2133  0.1358
15418SOL    HW247696   7.559   5.662  10.489  0.0700  0.6957  0.1793
15419SOL     OW47697   1.339   7.709   5.073 -0.0810  0.1693  0.3379
15419SOL    HW147698   1.337   7.701   4.978  0.6205 -2.1872  0.4653
15419SOL    HW247699   1.429   7.687   5.097 -0.8206 -1.6579  1.6614
15420SOL     OW47700   7.783   3.366   0.541 -0.7896 -0.1884  0.0821
15420SOL    HW147701   7.745   3.443   0.498 -0.0226  0.1812  0.0468
15420SOL    HW247702   7.858   3.400   0.589 -0.0104 -1.0172 -0.5122
15421SOL     OW47703   2.888   0.452   2.419 -0.2352  0.4889  0.0613
15421SOL    HW147704   2.919   0.455   2.510  1.4438  1.2045 -0.5021
15421SOL    HW247705   2.805   0.404   2.424 -0.8598  1.6411  2.1446
15422SOL     OW47706   4.014   1.106  11.286 -0.6413  0.2639  0.0343
15422SOL    HW147707   3.926   1.075  11.308 -0.9169  1.4571  0.6723
15422SOL    HW247708   4.012   1.120  11.192 -0.5087 -1.5868 -0.2979
15423SOL     OW47709   4.814   6.049   2.308 -0.5174 -0.5027  0.1053
15423SOL    HW147710   4.830   6.012   2.395 -0.1231 -0.3754  0.0891
15423SOL    HW247711   4.721   6.035   2.293 -1.0024  1.0810  1.3113
15424SOL     OW47712   5.132   0.334   7.685  0.2144  0.2933  0.2428
15424SOL    HW147713   5.053   0.367   7.642 -0.2338 -1.6869 -0.5933
15424SOL    HW247714   5.103   0.311   7.774  0.2179  0.9281  0.4109
15425SOL     OW47715   0.381   3.974  10.429 -0.0899 -0.4838  0.5078
15425SOL    HW147716   0.331   4.055  10.436  0.0803 -0.3390  0.0556
15425SOL    HW247717   0.377   3.951  10.336 -1.7630 -2.0345  0.9118
15426SOL     OW47718   5.788   2.076   3.252  0.5434 -0.1913  0.0984
15426SOL    HW147719   5.881   2.073   3.276 -0.1291 -1.3547  2.9688
15426SOL    HW247720   5.781   2.017   3.177  2.0051 -0.7518  0.3723
15427SOL     OW47721   1.138   6.371   7.846  0.9556  0.3590 -0.9548
15427SOL    HW147722   1.187   6.390   7.927 -1.3592  0.2419  0.5591
15427SOL    HW247723   1.178   6.292   7.811  1.6580  0.1017  0.3850
15428SOL     OW47724   6.559   0.008   7.222 -0.3210  0.0059 -0.0820
15428SOL    HW147725   6.506   0.007   7.302 -0.7630  1.5681 -0.3141
15428SOL    HW247726   6.625  -0.059   7.236 -0.4592  0.1711  1.5608
15429SOL     OW47727   6.632   3.938  11.266 -0.0775 -0.0353 -0.6468
15429SOL    HW147728   6.706   3.880  11.250 -0.9499 -0.6976 -2.5066
15429SOL    HW247729   6.652   3.980  11.350  1.0705 -2.2415  0.2447
15430SOL     OW47730   4.861   5.599   5.175 -0.2126  0.8958 -0.0720
15430SOL    HW147731   4.956   5.594   5.159 -0.5261 -0.5807 -1.8458
15430SOL    HW247732   4.853   5.631   5.264  2.0315 -1.8236  1.2514
15431SOL     OW47733   0.863   4.709   9.230 -0.3415 -0.1761 -0.0889
15431SOL    HW147734   0.905   4.632   9.190 -0.7486 -1.0233  1.0763
15431SOL    HW247735   0.825   4.756   9.156  0.5127 -0.7188 -0.9022
15432SOL     OW47736   6.191   1.731   4.617 -0.3437 -0.5532  0.3420
15432SOL    HW147737   6.185   1.821   4.648 -0.0521 -0.5995  0.5440
15432SOL    HW247738   6.120   1.685   4.661 -1.5929 -0.0627 -1.0867
15433SOL     OW47739   0.824   4.635   5.457  0.1601  0.2099  0.8374
15433SOL    HW147740   0.918   4.643   5.473  0.1032  0.1039  1.2418
15433SOL    HW247741   0.783   4.687   5.527 -0.0234  3.1054 -1.2550
15434SOL     OW47742   4.529   5.919   2.164  0.3257 -0.1795  0.3915
15434SOL    HW147743   4.563   5.912   2.075  0.7810 -0.2631  0.5678
15434SOL    HW247744   4.530   6.013   2.183  0.7220 -0.2043  0.4958
15435SOL     OW47745   3.279   1.167   7.445 -0.0425 -0.3002 -0.1274
15435SOL    HW147746   3.315   1.256   7.443 -2.0638  0.5629  0.1861
15435SOL    HW247747   3.272   1.146   7.538  0.9767 -1.0536 -0.2016
15436SOL     OW47748   5.312   0.147  11.537 -0.1484  0.5223 -0.3069
15436SOL    HW147749   5.323   0.239  11.562  0.2087 -0.0016  1.5935
15436SOL    HW247750   5.272   0.106  11.613  2.9893 -1.6324  0.3379
15437SOL     OW47751   1.082   4.612   5.541  0.6178 -0.3352 -1.4094
15437SOL    HW147752   1.166   4.658   5.544  1.0672 -1.1857  0.8223
15437SOL    HW247753   1.105   4.520   5.557 -0.7513 -0.5224 -0.3960
15438SOL     OW47754   4.812   7.496   0.417 -0.0449 -0.1006  0.6947
15438SOL    HW147755   4.800   7.417   0.363 -0.5390 -0.6275  1.5513
15438SOL    HW247756   4.807   7.568   0.354  1.3849 -0.7802 -0.2469
15439SOL     OW47757   0.185   6.391   3.104 -0.2905  0.0838 -0.5270
15439SOL    HW147758   0.199   6.373   3.197 -0.3069 -0.0831 -0.5563
15439SOL    HW247759   0.123   6.464   3.103 -0.7820 -0.3241 -0.4107
15440SOL     OW47760   4.620   0.404   7.209  0.0813 -0.2106 -0.5448
15440SOL    HW147761   4.614   0.455   7.129 -2.1605 -0.4800 -0.6069
15440SOL    HW247762   4.561   0.448   7.270  1.1333 -0.4817  0.7133
15441SOL     OW47763   6.302   6.401   6.737 -0.0595 -1.1768  0.1835
15441SOL    HW147764   6.283   6.396   6.643  2.4306 -2.0369 -0.3684
15441SOL    HW247765   6.249   6.333   6.777 -1.0225 -0.9103 -0.6161
15442SOL     OW47766   7.666   3.708   2.783  0.3227  0.4310  0.2739
15442SOL    HW147767   7.603   3.723   2.853  1.2779 -0.8057  1.4752
15442SOL    HW247768   7.739   3.767   2.803  0.3566  0.4893 -0.0152
15443SOL     OW47769   3.060   0.942   6.435 -0.4544 -0.1129 -0.4289
15443SOL    HW147770   3.069   0.994   6.515  0.0602 -0.7377 -0.0704
15443SOL    HW247771   3.131   0.877   6.440 -1.8407 -1.6750 -0.2485
15444SOL     OW47772   5.982   6.459   2.454 -0.1136 -0.1960  0.3123
15444SOL    HW147773   6.018   6.547   2.458  2.0240 -0.7542 -2.9176
15444SOL    HW247774   5.909   6.466   2.393  0.2811 -0.6680 -0.2290
15445SOL     OW47775   7.284   7.815  11.613  0.3771 -0.2357  0.0626
15445SOL    HW147776   7.330   7.891  11.578 -0.0465 -0.5738 -1.2863
15445SOL    HW247777   7.348   7.771  11.668  0.3888  1.5236  1.5491
15446SOL     OW47778   4.043   0.425   0.287  0.0405  0.4241 -0.3525
15446SOL    HW147779   4.127   0.379   0.292  0.5667  1.3873 -0.0926
15446SOL    HW247780   4.046   0.470   0.202 -0.8769 -0.7545 -1.0444
15447SOL     OW47781   0.969   0.411   3.764  0.3209  0.3041  1.1239
15447SOL    HW147782   1.006   0.323   3.775  1.8718  0.9636  1.3882
15447SOL    HW247783   0.972   0.450   3.851 -0.5774  0.5525  1.0544
15448SOL     OW47784   4.022   5.137   2.891  0.2124 -0.6782  0.6076
15448SOL    HW147785   4.019   5.054   2.844 -0.9501 -1.0270  1.2684
15448SOL    HW247786   4.026   5.204   2.822  0.0660 -1.2320  0.0540
15449SOL     OW47787   0.852   5.932   9.618 -0.5181  0.3105  0.1837
15449SOL    HW147788   0.894   5.967   9.540  1.1219 -0.4109  0.6915
15449SOL    HW247789   0.763   5.966   9.616  0.0247  1.7168 -1.0759
15450SOL     OW47790   2.367   5.212   1.326  0.6258  0.2864 -0.1324
15450SOL    HW147791   2.447   5.216   1.377  0.4953 -0.2558  0.1225
15450SOL    HW247792   2.318   5.291   1.351  1.3543  0.9478 -0.7640
15451SOL     OW47793   2.200   6.069   3.148 -0.4465  0.2722 -0.0570
15451SOL    HW147794   2.115   6.112   3.143 -0.1189  0.7979 -1.4951
15451SOL    HW247795   2.198   6.020   3.231 -1.6221  1.3461  0.5663
15452SOL     OW47796   0.397   5.284   1.446 -0.2086 -0.6184 -0.1295
15452SOL    HW147797   0.426   5.284   1.537 -1.2136  0.5409  0.2292
15452SOL    HW247798   0.456   5.345   1.402  0.7210 -1.7041 -0.4411
15453SOL     OW47799   0.377   5.444  11.908 -0.2301  0.3688  0.2576
15453SOL    HW147800   0.445   5.455  11.842  1.3730 -0.7349  1.6484
15453SOL    HW247801   0.303   5.496  11.876  0.7463  0.4466 -2.0075
15454SOL     OW47802   3.294   1.255   6.166 -0.1043  0.0402 -0.1103
15454SOL    HW147803   3.283   1.162   6.183  0.3783 -0.0428 -0.2387
15454SOL    HW247804   3.243   1.271   6.086  0.3878 -0.2598 -0.4878
15455SOL     OW47805   0.448   7.595   8.709  0.0285 -0.1830  0.4244
15455SOL    HW147806   0.413   7.665   8.765  3.5503  1.7440  0.4992
15455SOL    HW247807   0.463   7.522   8.768 -0.8544  0.0688  0.9770
15456SOL     OW47808   5.224   2.623   2.489 -0.1862  0.7107 -0.3559
15456SOL    HW147809   5.303   2.675   2.478  0.2070  0.0471 -0.7162
15456SOL    HW247810   5.178   2.665   2.562  0.5178  1.0696 -0.1071
15457SOL     OW47811   7.779   6.286  11.832 -0.1887 -0.2252  0.0866
15457SOL    HW147812   7.710   6.223  11.811 -0.6742  0.5832 -0.8158
15457SOL    HW247813   7.860   6.235  11.825 -0.5156 -0.6062 -1.3166
15458SOL     OW47814   4.327   4.937   5.719  0.4491  0.2574 -0.2154
15458SOL    HW147815   4.341   4.978   5.634  1.4630  0.5731  0.0947
15458SOL    HW247816   4.232   4.941   5.732  0.4307  1.5542 -0.6567
15459SOL     OW47817   1.230   7.309   1.299 -0.6275 -0.4983  0.2944
15459SOL    HW147818   1.302   7.262   1.341 -0.2244 -1.4477 -1.3654
15459SOL    HW247819   1.240   7.289   1.206 -1.9327  0.8954 -0.1775
15460SOL     OW47820   6.978   2.513   2.489 -0.3534  0.0364 -0.4414
15460SOL    HW147821   6.995   2.490   2.397  0.6271  0.4172 -0.3675
15460SOL    HW247822   6.888   2.483   2.505  0.0619 -1.6549 -1.0085
15461SOL     OW47823   7.297   2.823   3.622 -0.0893  0.0974 -0.8592
15461SOL    HW147824   7.367   2.888   3.633 -0.3083  0.0298  1.3683
15461SOL    HW247825   7.252   2.822   3.706 -1.0371 -1.8697 -1.3371
15462SOL     OW47826   7.111   4.120  11.268 -0.4668 -0.1913 -0.0135
15462SOL    HW147827   7.158   4.187  11.317  0.4824 -1.1000  0.3500
15462SOL    HW247828   7.078   4.061  11.335  2.5573 -2.5914 -0.4371
15463SOL     OW47829   0.488   0.365   7.424  0.0416  0.1657  0.1740
15463SOL    HW147830   0.451   0.336   7.341  0.3943 -0.8212  0.3473
15463SOL    HW247831   0.570   0.316   7.432 -0.2246 -0.1203  1.3277
15464SOL     OW47832   0.846   0.754   3.863  0.0189  0.0305 -0.3817
15464SOL    HW147833   0.827   0.838   3.822 -0.1322  0.7290  1.0745
15464SOL    HW247834   0.939   0.740   3.844  0.5605  1.4780  0.9455
15465SOL     OW47835   1.625   4.000   1.998  0.1894  0.2140  0.7317
15465SOL    HW147836   1.666   3.918   2.025 -0.9444 -0.4484  0.5043
15465SOL    HW247837   1.671   4.024   1.918 -0.8040 -1.2807 -0.3233
15466SOL     OW47838   3.897   6.309   8.803 -0.6021 -0.6772 -0.5940
15466SOL    HW147839   3.841   6.259   8.863  1.5194 -0.9359  1.3309
15466SOL    HW247840   3.866   6.400   8.812 -0.8813 -0.8432  0.2436
15467SOL     OW47841   3.735   1.451   9.743  0.1908 -0.3279 -0.1514
15467SOL    HW147842   3.695   1.411   9.665  1.9528  1.1353 -1.9105
15467SOL    HW247843   3.661   1.487   9.792 -0.9744 -1.2553 -1.1753
15468SOL     OW47844   7.738   1.663  10.826 -0.3281 -0.1879  0.2245
15468SOL    HW147845   7.688   1.625  10.898 -2.2467  0.8665 -0.4813
15468SOL    HW247846   7.773   1.745  10.861 -1.1958  0.2868  0.0052
15469SOL     OW47847   2.214   0.523   0.372  0.0916  0.1103  0.7700
15469SOL    HW147848   2.183   0.452   0.316  2.7540 -0.3072 -0.3532
15469SOL    HW247849   2.135   0.571   0.396 -1.5121 -1.6511 -0.6259
15470SOL     OW47850   3.877   2.391   5.343  0.6360 -0.1811 -1.0555
15470SOL    HW147851   3.948   2.454   5.328 -0.5366  1.3817 -0.3663
15470SOL    HW247852   3.844   2.413   5.430  0.7526 -2.3732 -0.4042
15471SOL     OW47853   5.124   1.711  11.787  0.1482  0.1938 -0.4816
15471SOL    HW147854   5.044   1.763  11.779  0.6563  0.9758 -0.6762
15471SOL    HW247855   5.126   1.658  11.707 -0.2405  0.0817 -0.4166
15472SOL     OW47856   3.490   5.886   8.298  0.1876 -0.0231 -0.9495
15472SOL    HW147857   3.551   5.871   8.370  1.3280 -0.8851 -2.0596
15472SOL    HW247858   3.403   5.871   8.337  0.5876  1.5762  0.7470
15473SOL     OW47859   3.254   1.777   0.138  0.3827 -0.5843 -0.5207
15473SOL    HW147860   3.300   1.706   0.183  2.1158  2.6604  3.4779
15473SOL    HW247861   3.322   1.842   0.120 -1.5709  1.4816 -0.9306
15474SOL     OW47862   5.028   1.352   8.153  0.0546  0.2003  0.1101
15474SOL    HW147863   5.102   1.412   8.149 -0.2812  0.6389  0.4086
15474SOL    HW247864   5.019   1.332   8.247 -2.5068  3.0692  0.6321
15475SOL     OW47865   2.042   1.631   7.681  0.5393  0.0098  0.6414
15475SOL    HW147866   2.092   1.594   7.754  2.4360  0.4230 -0.4031
15475SOL    HW247867   1.969   1.569   7.669 -0.3893  0.4194  3.4350
15476SOL     OW47868   6.184   2.639   4.324  0.3380  0.7969 -0.1725
15476SOL    HW147869   6.130   2.603   4.395  0.6783  0.4807 -0.0676
15476SOL    HW247870   6.178   2.733   4.335  1.8462  0.7541  1.4158
15477SOL     OW47871   4.317   7.420  10.855 -0.1031 -0.6079  0.0030
15477SOL    HW147872   4.249   7.395  10.918 -0.2593 -0.2671 -0.0268
15477SOL    HW247873   4.385   7.460  10.909 -0.6740  0.6105 -0.1256
15478SOL     OW47874   1.076   3.183   6.843  0.3726  0.6334 -0.1843
15478SOL    HW147875   1.047   3.195   6.753  0.2316 -1.3735 -0.4545
15478SOL    HW247876   1.003   3.140   6.887  0.8413  0.6072  0.5935
15479SOL     OW47877   5.078   5.918   5.307 -0.0698  0.1432  0.6641
15479SOL    HW147878   5.142   5.935   5.376  0.4127 -0.5506  0.3984
15479SOL    HW247879   5.124   5.939   5.226  0.5016 -2.1356  0.3292
15480SOL     OW47880   1.410   5.499  11.520  0.3372  0.2558 -0.0468
15480SOL    HW147881   1.445   5.549  11.594 -0.2480  1.7094 -0.7070
15480SOL    HW247882   1.487   5.472  11.471  0.6666  0.9419  0.0775
15481SOL     OW47883   2.998   6.128   5.602 -0.0484  0.1770  0.4000
15481SOL    HW147884   3.029   6.125   5.512 -0.3937  0.9192  0.2474
15481SOL    HW247885   3.019   6.217   5.631  0.9843 -0.3676  1.3917
15482SOL     OW47886   7.476   7.215  11.167  0.1545  0.1015  0.0202
15482SOL    HW147887   7.430   7.277  11.223  0.1643  0.2466 -0.1319
15482SOL    HW247888   7.445   7.129  11.195 -0.2721  0.2023 -0.1396
15483SOL     OW47889   6.092   2.065   2.023 -0.2169  0.2439 -0.3410
15483SOL    HW147890   6.016   2.115   1.995 -0.2893  1.0331  1.1871
15483SOL    HW247891   6.109   2.005   1.950 -2.0374  0.3235 -0.8775
15484SOL     OW47892   3.820   7.503   7.690  0.1300  1.2717  0.3205
15484SOL    HW147893   3.730   7.471   7.700  0.4052  0.6135  0.7254
15484SOL    HW247894   3.810   7.587   7.645 -0.4726 -0.3364 -2.8152
15485SOL     OW47895   7.316   0.165   1.257  0.1134 -0.5424  0.1321
15485SOL    HW147896   7.342   0.088   1.206  1.7750  0.0600 -0.0021
15485SOL    HW247897   7.224   0.180   1.234  0.4325 -1.1003 -1.6451
15486SOL     OW47898   7.823   7.049   7.609 -0.0389 -0.4371  0.0898
15486SOL    HW147899   7.742   6.999   7.603 -0.4810  0.1978  0.6016
15486SOL    HW247900   7.831   7.094   7.525  0.2532 -1.1985 -0.2925
15487SOL     OW47901   0.299   7.011   8.309 -0.9108 -0.6912  0.3006
15487SOL    HW147902   0.261   7.078   8.365  1.4292  1.1471 -0.1909
15487SOL    HW247903   0.249   7.017   8.227 -0.9271  0.2218  0.3691
15488SOL     OW47904   3.384   1.878   8.802 -0.5846 -0.3931  0.1569
15488SOL    HW147905   3.305   1.929   8.782 -0.6112 -0.7916 -0.7656
15488SOL    HW247906   3.392   1.815   8.731  1.3023  0.4962 -0.4837
15489SOL     OW47907   2.405   2.721   4.246  0.6294  0.1628 -0.6499
15489SOL    HW147908   2.342   2.772   4.297  0.3038 -0.4242 -0.4459
15489SOL    HW247909   2.376   2.731   4.155 -1.3988 -2.2022 -0.3676
15490SOL     OW47910   7.519   6.766   5.469  0.3726  0.0338 -0.0709
15490SOL    HW147911   7.507   6.689   5.524 -2.0222 -0.0310 -0.5860
15490SOL    HW247912   7.552   6.732   5.386 -0.8774 -0.4964 -0.3679
15491SOL     OW47913   5.832   3.446   8.333 -0.6581 -0.4726 -0.7745
15491SOL    HW147914   5.817   3.507   8.405  1.6528 -1.6712  0.8419
15491SOL    HW247915   5.841   3.360   8.374  2.0136 -1.0270 -2.2584
15492SOL     OW47916   0.457   4.923   6.736  0.4067 -0.4870  0.3333
15492SOL    HW147917   0.503   5.007   6.736 -2.6881  1.4020  1.6924
15492SOL    HW247918   0.438   4.905   6.644 -0.3455  1.2585  0.1030
15493SOL     OW47919   4.132   4.149  11.641  0.2978 -0.0831  0.6789
15493SOL    HW147920   4.119   4.069  11.693  1.1409  0.6231  2.0452
15493SOL    HW247921   4.223   4.174  11.658 -0.3763  2.0161  1.5863
15494SOL     OW47922   4.887   4.248   1.966 -0.1392  0.6378 -0.5522
15494SOL    HW147923   4.825   4.176   1.973  1.0967 -0.3380  0.7831
15494SOL    HW247924   4.891   4.267   1.872  0.2097 -1.6566 -1.0448
15495SOL     OW47925   0.315   1.317   9.036 -0.2938 -0.0343 -0.1482
15495SOL    HW147926   0.310   1.242   8.977 -0.3234  0.2914 -0.5626
15495SOL    HW247927   0.334   1.391   8.979 -0.9515  0.3839  0.1708
15496SOL     OW47928   3.176   6.160   5.861  0.2329  0.1043 -0.1450
15496SOL    HW147929   3.135   6.127   5.780  1.7742  1.7034 -1.6650
15496SOL    HW247930   3.172   6.255   5.852  0.1679  0.3294  1.8665
15497SOL     OW47931   3.646   1.178  11.300  0.2559  0.0072  0.3963
15497SOL    HW147932   3.676   1.090  11.276 -0.3342 -0.1032  0.0428
15497SOL    HW247933   3.691   1.197  11.383  2.0688  0.2542 -0.5925
15498SOL     OW47934   4.434   6.160   4.318  0.0192 -0.0534  0.3259
15498SOL    HW147935   4.453   6.093   4.252 -0.0525  0.9768 -0.7861
15498SOL    HW247936   4.507   6.156   4.379 -0.1831 -1.4024  0.5126
15499SOL     OW47937   0.306   3.546   9.441  0.0984 -0.0477 -0.5404
15499SOL    HW147938   0.295   3.466   9.493  2.6983 -0.4323 -0.4422
15499SOL    HW247939   0.285   3.616   9.502 -3.3160 -0.5726 -0.9398
15500SOL     OW47940   7.450   4.852   5.915 -0.1027  0.4357  0.4963
15500SOL    HW147941   7.534   4.806   5.913  0.5713  1.6869 -1.0990
15500SOL    HW247942   7.401   4.807   5.984  1.0566 -1.7256  0.0048
15501SOL     OW47943   2.724   4.259   0.690 -0.2257  0.1940  0.0377
15501SOL    HW147944   2.706   4.271   0.783 -3.2701  0.8962 -0.5336
15501SOL    HW247945   2.696   4.170   0.671  1.7943 -0.4838  0.0187
15502SOL     OW47946   6.890   7.346   3.817  0.3132  0.1435 -0.3387
15502SOL    HW147947   6.985   7.340   3.810  0.2350 -0.0458 -1.3548
15502SOL    HW247948   6.862   7.257   3.838  0.4319  0.4190  1.0902
15503SOL     OW47949   1.320   2.599   7.077  0.5910 -0.0673 -0.1970
15503SOL    HW147950   1.228   2.589   7.099  0.0572  1.5824 -1.5030
15503SOL    HW247951   1.351   2.671   7.132  0.5390  0.7623 -1.2332
15504SOL     OW47952   7.112   0.302   7.772  0.2479  0.0824 -0.4427
15504SOL    HW147953   7.037   0.263   7.728  0.0151  1.4828 -1.3431
15504SOL    HW247954   7.156   0.228   7.815 -0.1394 -1.1833 -2.1193
15505SOL     OW47955   7.886   2.019   3.020  0.0564  0.4296 -0.1681
15505SOL    HW147956   7.794   2.021   3.048 -0.5050 -0.5238 -1.8338
15505SOL    HW247957   7.916   1.931   3.043  1.2270  1.3391  2.1940
15506SOL     OW47958   1.919   7.441   3.356 -0.3339 -0.0368 -0.0429
15506SOL    HW147959   1.972   7.386   3.299  1.2012  1.0835  0.2679
15506SOL    HW247960   1.905   7.387   3.434 -1.4014 -1.0997 -0.9294
15507SOL     OW47961   3.191   6.016   7.104  0.7103  0.5838  0.0957
15507SOL    HW147962   3.168   5.950   7.170  1.4937  0.3478  0.1448
15507SOL    HW247963   3.260   6.068   7.145 -2.2703  3.8556  1.5412
15508SOL     OW47964   5.657   1.451  10.442 -0.3212 -0.2410  0.2216
15508SOL    HW147965   5.686   1.478  10.355  1.1223  0.6934  0.9528
15508SOL    HW247966   5.653   1.355  10.438  0.6634 -0.2579 -0.5819
15509SOL     OW47967   0.028   0.754  12.336  0.9448 -0.5747  0.1421
15509SOL    HW147968   0.054   0.662  12.347  0.3231 -0.6416  1.1853
15509SOL    HW247969   0.108   0.799  12.310  2.1167 -0.8160  2.9810
15510SOL     OW47970   0.262   5.404   0.954  0.0079  1.0789 -0.5015
15510SOL    HW147971   0.222   5.318   0.945 -0.4970  1.4062 -1.6113
15510SOL    HW247972   0.244   5.429   1.044 -0.1979  0.1921 -0.2862
15511SOL     OW47973   4.129   1.476  10.224  0.2323  0.0432 -0.5089
15511SOL    HW147974   4.043   1.440  10.201  1.0414 -1.3986 -1.4740
15511SOL    HW247975   4.122   1.495  10.318 -1.7238  1.7874 -0.9165
15512SOL     OW47976   3.355   7.539   7.484 -0.8933 -0.0924  0.2229
15512SOL    HW147977   3.334   7.476   7.415  0.4688 -0.1525 -0.1779
15512SOL    HW247978   3.302   7.512   7.559 -1.7819 -0.5257 -0.5487
15513SOL     OW47979   0.685   3.734   0.175  0.1928  0.7702  0.6319
15513SOL    HW147980   0.606   3.680   0.179 -0.6346  1.8919  0.0377
15513SOL    HW247981   0.676   3.784   0.094  0.8622  1.8832  1.2108
15514SOL     OW47982   6.591   6.665   1.909 -0.2644  0.0750 -0.4339
15514SOL    HW147983   6.681   6.634   1.916 -0.1406  0.5668  0.3025
15514SOL    HW247984   6.582   6.726   1.982 -1.2204 -0.0315 -0.4592
15515SOL     OW47985   5.326   7.699   2.249  0.3000  0.4333 -0.1572
15515SOL    HW147986   5.392   7.761   2.220  0.5375  0.2208 -0.0770
15515SOL    HW247987   5.369   7.649   2.319  0.1162  0.1741 -0.2287
15516SOL     OW47988   5.031   1.556   0.091  0.2203  0.3588 -0.1328
15516SOL    HW147989   5.060   1.646   0.102  0.4059  0.2158  0.6524
15516SOL    HW247990   5.029   1.521   0.180  0.1371 -0.4072 -0.4291
15517SOL     OW47991   3.604   6.079  10.752 -0.0638 -0.1773  0.0271
15517SOL    HW147992   3.605   6.139  10.826  1.7091 -0.1362  0.0091
15517SOL    HW247993   3.589   5.993  10.791  1.3189 -0.2197  0.5098
15518SOL     OW47994   3.122   1.240   9.400 -0.1603  0.1355 -0.6413
15518SOL    HW147995   3.062   1.313   9.387 -0.7492  0.3049  2.3643
15518SOL    HW247996   3.209   1.280   9.392 -0.4154  0.4722 -2.1245
15519SOL     OW47997   4.279   6.245   1.198  0.1318 -0.5663 -0.2541
15519SOL    HW147998   4.351   6.189   1.168  0.8293  0.9005 -1.4240
15519SOL    HW247999   4.200   6.192   1.183  0.7749 -1.3068 -1.1686
15520SOL     OW48000   5.777   0.782   1.637 -0.0195 -0.4684 -0.4934
15520SOL    HW148001   5.831   0.853   1.601  0.5251 -0.8251 -0.3750
15520SOL    HW248002   5.816   0.761   1.721 -0.5514 -0.4961 -0.2473
15521SOL     OW48003   7.096   0.966   4.789 -0.1907  0.7088 -0.2745
15521SOL    HW148004   7.150   1.035   4.828 -0.4609  0.5473  0.4000
15521SOL    HW248005   7.112   0.890   4.843 -0.2405  0.3567 -0.7490
15522SOL     OW48006   5.236   7.800  11.793  0.1284  0.2616  0.0662
15522SOL    HW148007   5.217   7.772  11.882 -1.2944  1.8198  0.2997
15522SOL    HW248008   5.198   7.733  11.737 -1.0435  0.4481  0.6219
15523SOL     OW48009   4.042   0.976   8.110  0.0941  0.2084  0.4115
15523SOL    HW148010   4.060   0.944   8.021 -0.1249 -1.2292  0.8585
15523SOL    HW248011   4.091   1.058   8.116  0.9164 -0.1706 -0.6950
15524SOL     OW48012   0.186   0.416   8.044 -0.0114 -0.2900 -0.6896
15524SOL    HW148013   0.113   0.478   8.051  0.9228  0.8428 -0.7429
15524SOL    HW248014   0.202   0.388   8.134 -0.1357 -0.1086 -0.6110
15525SOL     OW48015   6.985   5.474   9.269  0.2114  0.0661 -0.1854
15525SOL    HW148016   7.069   5.466   9.224 -0.5431 -0.2194 -1.6174
15525SOL    HW248017   6.985   5.562   9.305  0.6975  0.4709 -1.1373
15526SOL     OW48018   2.605   6.316   5.777 -0.1902 -0.4506  0.2961
15526SOL    HW148019   2.527   6.371   5.782 -0.9106 -1.5283  3.1865
15526SOL    HW248020   2.671   6.364   5.827 -0.3131 -1.3592  1.3804
15527SOL     OW48021   7.785   3.532   5.837 -0.5934 -0.3468  0.0071
15527SOL    HW148022   7.762   3.624   5.823 -1.2404 -0.5576 -0.3692
15527SOL    HW248023   7.741   3.508   5.918 -0.1802 -0.2451  0.2624
15528SOL     OW48024   3.011   1.103   5.405 -0.0848 -0.4036 -0.0670
15528SOL    HW148025   3.086   1.158   5.384  0.4150 -0.4499  1.4366
15528SOL    HW248026   2.967   1.088   5.322  2.4004 -1.5914 -1.2722
15529SOL     OW48027   3.914   4.138   3.332  0.0457  0.0836 -0.5428
15529SOL    HW148028   3.831   4.105   3.367 -0.9816  1.6063 -1.4136
15529SOL    HW248029   3.968   4.059   3.321 -1.1823 -0.9191  0.2800
15530SOL     OW48030   0.723   0.176  12.248 -0.1074 -0.5421 -0.2493
15530SOL    HW148031   0.744   0.084  12.231  0.8672 -0.4338  0.3447
15530SOL    HW248032   0.763   0.196  12.332  0.4569  0.6678 -0.7685
15531SOL     OW48033   3.950   5.349   3.888  0.6240 -0.5082  0.5570
15531SOL    HW148034   4.027   5.306   3.851 -0.3493 -1.2714 -0.6951
15531SOL    HW248035   3.927   5.417   3.825 -0.7477 -1.4654 -0.0246
15532SOL     OW48036   7.830   0.028   9.373 -0.1738  0.3183  0.1834
15532SOL    HW148037   7.841  -0.037   9.303 -3.3143 -1.1157  0.8383
15532SOL    HW248038   7.867   0.108   9.336  0.4927 -0.9322 -2.1380
15533SOL     OW48039   1.293   7.833   2.460  0.3832 -0.1869  0.2078
15533SOL    HW148040   1.369   7.833   2.518 -0.0703  1.2255  0.8452
15533SOL    HW248041   1.225   7.877   2.510  0.2756  2.0353 -1.7230
15534SOL     OW48042   7.555   1.455   5.914 -0.6422  0.5728  0.3968
15534SOL    HW148043   7.460   1.467   5.919 -0.5474  0.8533  3.0168
15534SOL    HW248044   7.589   1.507   5.986  1.3814 -0.8200  0.5158
15535SOL     OW48045   1.559   5.883  11.481 -0.4406  0.2624  0.2941
15535SOL    HW148046   1.560   5.975  11.457  0.4215  0.4711  1.0994
15535SOL    HW248047   1.596   5.837  11.406 -1.6001  0.4753 -0.4313
15536SOL     OW48048   1.802   5.246   0.943  0.1089 -0.5215  0.4862
15536SOL    HW148049   1.826   5.319   0.886  0.7813  0.1364  1.5957
15536SOL    HW248050   1.770   5.179   0.882 -1.5722  1.0635 -0.4704
15537SOL     OW48051   3.557   1.089   4.920  0.5247  0.6866 -0.7447
15537SOL    HW148052   3.544   1.147   4.845 -0.8981  1.6413  0.1867
15537SOL    HW248053   3.530   1.003   4.889 -0.2983  1.1190 -1.2601
15538SOL     OW48054   0.315   0.241  11.885 -0.4023 -0.1547 -0.5187
15538SOL    HW148055   0.299   0.310  11.821 -1.6812 -0.3240 -0.4205
15538SOL    HW248056   0.276   0.162  11.846 -2.3747  0.0054  0.9572
15539SOL     OW48057   6.168   4.753   2.414  0.4299  0.3513  0.8722
15539SOL    HW148058   6.152   4.826   2.353  1.6709  1.0531  1.3508
15539SOL    HW248059   6.115   4.681   2.380 -0.0076  1.1636 -0.2165
15540SOL     OW48060   2.822   5.699   7.358  0.8348 -0.0790 -0.3301
15540SOL    HW148061   2.894   5.638   7.370 -0.6450 -1.5229  1.9711
15540SOL    HW248062   2.766   5.658   7.292  0.2899 -0.8105  0.5705
15541SOL     OW48063   6.404   7.270  11.219 -0.7208  0.3843  0.0634
15541SOL    HW148064   6.433   7.331  11.151 -0.8990 -0.1401 -0.4920
15541SOL    HW248065   6.468   7.199  11.217 -2.4269 -1.2109 -1.7642
15542SOL     OW48066   2.145   1.045   7.969  0.0776 -0.1176 -0.0750
15542SOL    HW148067   2.050   1.040   7.958 -0.1432  1.9962  0.3701
15542SOL    HW248068   2.160   1.015   8.059 -0.5318  2.0967  0.8172
15543SOL     OW48069   0.463   2.523   9.380  0.4190 -0.4114  0.1276
15543SOL    HW148070   0.547   2.484   9.358 -0.3878 -1.7861 -0.6285
15543SOL    HW248071   0.477   2.565   9.465  1.5613 -1.5975  0.5473
15544SOL     OW48072   1.505   1.307   2.733 -0.3137  0.3681 -0.0761
15544SOL    HW148073   1.447   1.303   2.656 -0.5226 -0.4352  0.1111
15544SOL    HW248074   1.446   1.299   2.808 -0.0666  0.7159  0.1593
15545SOL     OW48075   6.427   4.606  12.274  0.3647 -0.3859  0.4682
15545SOL    HW148076   6.430   4.661  12.352  1.5798  0.7853 -0.3529
15545SOL    HW248077   6.337   4.614  12.243  0.3877  0.7530  0.6506
15546SOL     OW48078   1.206   0.622   4.663  0.0254  0.0787  0.2259
15546SOL    HW148079   1.192   0.710   4.697 -0.7205 -0.1838  0.6192
15546SOL    HW248080   1.226   0.635   4.571  1.4455  0.7597  0.6061
15547SOL     OW48081   2.413   5.853   2.632 -0.1891 -0.5945  0.2685
15547SOL    HW148082   2.392   5.924   2.570  1.3493 -1.4445 -1.3022
15547SOL    HW248083   2.371   5.776   2.595  0.8922 -1.1516  0.1755
15548SOL     OW48084   6.560   2.208   0.350 -0.2881  0.5450  0.2873
15548SOL    HW148085   6.638   2.154   0.360 -1.1292 -0.8892 -0.5128
15548SOL    HW248086   6.579   2.266   0.276 -0.0475  0.0503 -0.0426
15549SOL     OW48087   7.029   2.119  10.919  0.1113 -0.1909  0.2179
15549SOL    HW148088   6.964   2.130  10.849  1.3607  0.2654 -0.9067
15549SOL    HW248089   7.092   2.189  10.904  0.3865 -0.0500  1.8541
15550SOL     OW48090   5.979   0.563   1.125  0.6384  0.2890 -0.6485
15550SOL    HW148091   5.928   0.485   1.145 -0.1362  0.9744  0.1444
15550SOL    HW248092   6.041   0.572   1.197 -0.2775  1.2084  0.0614
15551SOL     OW48093   1.862   6.929   0.578  0.7375  0.5263  0.9466
15551SOL    HW148094   1.828   6.843   0.602 -2.0102  1.0233 -0.6648
15551SOL    HW248095   1.811   6.991   0.631  0.8411  1.2429  0.2377
15552SOL     OW48096   7.923   7.436  10.296 -0.1989 -0.0634  0.7818
15552SOL    HW148097   7.976   7.384  10.236  0.5439  1.9827 -0.4257
15552SOL    HW248098   7.855   7.376  10.326  1.7702 -2.3113  1.0828
15553SOL     OW48099   1.303   3.404   5.373  0.2256 -0.1425  0.3201
15553SOL    HW148100   1.219   3.400   5.418  0.4207 -0.4086  0.6677
15553SOL    HW248101   1.322   3.313   5.350 -0.0826  0.0395 -0.7004
15554SOL     OW48102   5.013   4.523   0.833 -0.2471 -0.1110  0.0501
15554SOL    HW148103   5.026   4.473   0.753  0.6189  1.3066 -0.7285
15554SOL    HW248104   4.919   4.540   0.836 -0.4674 -1.2572  0.0250
15555SOL     OW48105   1.155   5.873   3.632 -0.2346 -0.3675 -0.5347
15555SOL    HW148106   1.137   5.943   3.695  0.0459  2.1404 -3.0763
15555SOL    HW248107   1.241   5.839   3.658  0.3170  1.2684 -0.1428
15556SOL     OW48108   3.829   3.914   4.100  0.2009 -0.2990 -0.5996
15556SOL    HW148109   3.916   3.879   4.083  0.7328  1.4541 -1.8103
15556SOL    HW248110   3.770   3.859   4.047  0.6465 -1.0268 -0.3529
15557SOL     OW48111   0.536   0.575   2.621  0.6709  0.3137 -0.3082
15557SOL    HW148112   0.530   0.498   2.678  2.0843  0.8113  0.5743
15557SOL    HW248113   0.563   0.541   2.536  1.4534 -0.1598  0.1211
15558SOL     OW48114   6.612   0.099  11.864 -0.0602 -0.1059 -0.9876
15558SOL    HW148115   6.551   0.171  11.883  0.9719 -0.0016  2.6135
15558SOL    HW248116   6.578   0.025  11.913  1.1543 -0.8709 -1.2676
15559SOL     OW48117   5.748   5.743   5.860 -0.0201  0.0813 -0.0503
15559SOL    HW148118   5.782   5.708   5.778 -0.0067  1.3896 -0.6210
15559SOL    HW248119   5.798   5.824   5.874 -1.2392  0.7895  0.3216
15560SOL     OW48120   3.728   7.891   3.107  0.1263  0.4477  0.1558
15560SOL    HW148121   3.726   7.926   3.196 -1.3763 -0.9057  0.7026
15560SOL    HW248122   3.653   7.931   3.064  0.8099  1.0432 -0.4957
15561SOL     OW48123   4.063   1.642  11.320 -0.5250  0.3232  0.1740
15561SOL    HW148124   4.147   1.638  11.367 -1.2118 -0.9224  1.3705
15561SOL    HW248125   4.080   1.700  11.246  1.3592  0.1946  0.4502
15562SOL     OW48126   4.594   7.074   6.978 -0.6925 -0.1123  0.4122
15562SOL    HW148127   4.517   7.085   7.033 -1.0037 -1.8303  0.3708
15562SOL    HW248128   4.566   7.106   6.892 -0.9546  0.4143  0.6892
15563SOL     OW48129   2.026   5.388  12.267  0.0415 -0.0875 -0.0705
15563SOL    HW148130   2.011   5.459  12.329  2.4113  0.6731 -0.2415
15563SOL    HW248131   1.960   5.401  12.199 -0.1116  1.4675  0.3257
15564SOL     OW48132   7.105   0.627   9.367  0.6288  0.0560 -0.2243
15564SOL    HW148133   7.119   0.686   9.293  0.5406 -0.5684 -0.7526
15564SOL    HW248134   7.185   0.574   9.371  0.5310 -0.0794 -0.0344
15565SOL     OW48135   5.721   5.249   3.074 -0.5188 -0.0027 -0.5598
15565SOL    HW148136   5.756   5.278   2.990 -2.6286  1.7140 -0.9397
15565SOL    HW248137   5.688   5.161   3.056  0.9334 -0.4932 -0.9352
15566SOL     OW48138   6.547   7.448   7.691 -0.2788 -0.4418  0.7426
15566SOL    HW148139   6.479   7.515   7.697  1.1914  1.2087  0.0132
15566SOL    HW248140   6.624   7.496   7.660  0.8290 -2.5055  0.1475
15567SOL     OW48141   0.969   3.979   8.468 -0.3235  0.0747 -0.6377
15567SOL    HW148142   0.905   3.968   8.538  0.9435 -1.8572  0.3138
15567SOL    HW248143   0.917   3.980   8.388 -1.7105  1.0078  0.2256
15568SOL     OW48144   1.619   4.575   9.460  0.2738 -0.0630  0.3528
15568SOL    HW148145   1.541   4.609   9.504  0.1915  0.3373 -0.0892
15568SOL    HW248146   1.689   4.583   9.524  0.3055  1.1867  0.1722
15569SOL     OW48147   0.272   3.266   4.414  0.0252  0.4203  0.0684
15569SOL    HW148148   0.302   3.288   4.326 -2.3133 -1.2358 -1.2604
15569SOL    HW248149   0.337   3.202   4.446  0.6725  0.7229 -0.6080
15570SOL     OW48150   0.979   1.526   7.465  0.1591  0.1581  0.3915
15570SOL    HW148151   1.026   1.523   7.548 -0.0298 -0.0565  0.4905
15570SOL    HW248152   0.998   1.613   7.430  1.1307 -0.1450  0.1385
15571SOL     OW48153   4.915   5.710   2.169 -0.1056 -0.1563  0.1386
15571SOL    HW148154   4.935   5.791   2.123  2.2070  0.1770  1.5688
15571SOL    HW248155   4.857   5.662   2.110 -0.2504  1.8278 -1.4244
15572SOL     OW48156   1.315   4.049   0.992 -0.3104 -0.6203 -0.3267
15572SOL    HW148157   1.385   3.985   1.007 -0.0769 -0.1567  0.6541
15572SOL    HW248158   1.295   4.084   1.079  1.2727  2.4241 -1.0353
15573SOL     OW48159   5.596   6.384  10.715 -0.7440 -0.0853  0.2664
15573SOL    HW148160   5.628   6.363  10.627 -0.0798  0.9554  0.2468
15573SOL    HW248161   5.655   6.338  10.774  0.8695  1.7909  0.2300
15574SOL     OW48162   1.841   2.165   4.590  0.1188 -0.1252 -0.2833
15574SOL    HW148163   1.794   2.242   4.558  0.3962 -1.4285 -4.4639
15574SOL    HW248164   1.773   2.111   4.631 -0.7708  0.7385 -0.5728
15575SOL     OW48165   6.849   5.755   0.494 -0.4949 -0.4307 -0.1094
15575SOL    HW148166   6.809   5.825   0.545 -1.1387  0.1500 -1.3533
15575SOL    HW248167   6.920   5.723   0.549 -0.8478  0.4907  0.9290
15576SOL     OW48168   1.013   7.459  10.345  0.1981 -0.8113  0.2584
15576SOL    HW148169   0.971   7.421  10.422 -0.4394 -0.5543  0.0428
15576SOL    HW248170   1.027   7.551  10.369 -0.0364 -0.7223  0.0511
15577SOL     OW48171   0.893   7.780  10.927 -0.0129 -0.5296  0.1061
15577SOL    HW148172   0.919   7.760  10.837 -1.2950 -0.1821 -0.3692
15577SOL    HW248173   0.923   7.870  10.941  0.7036 -0.7844  0.2410
15578SOL     OW48174   5.719   1.753   4.251 -0.5951 -0.3429  0.0919
15578SOL    HW148175   5.651   1.811   4.217  0.2223 -0.1362 -1.2606
15578SOL    HW248176   5.731   1.688   4.181  2.4278  1.1567 -0.9618
15579SOL     OW48177   4.715   4.337   0.541 -0.0710 -0.4741 -0.3986
15579SOL    HW148178   4.710   4.432   0.534  0.9433 -0.1721  2.1046
15579SOL    HW248179   4.739   4.308   0.452  2.2387  1.8504 -0.6566
15580SOL     OW48180   1.195   6.628   5.360 -0.0048  0.7973  0.0882
15580SOL    HW148181   1.140   6.645   5.436 -1.9789 -0.2648 -1.0147
15580SOL    HW248182   1.242   6.547   5.381  1.4707  1.8637  1.1512
15581SOL     OW48183   5.150   6.422   8.893  0.4837 -0.3436  0.8547
15581SOL    HW148184   5.155   6.476   8.972 -0.0706  0.2131  0.5232
15581SOL    HW248185   5.159   6.485   8.821 -2.8097 -0.2728  0.3860
15582SOL     OW48186   3.632   7.024   5.049  0.3012  0.2131  0.0709
15582SOL    HW148187   3.554   7.026   5.104 -0.1062  0.0583 -0.4872
15582SOL    HW248188   3.654   7.116   5.035 -1.9861  0.4832 -2.7838
15583SOL     OW48189   2.713   6.427   1.267  0.1240 -0.0346 -0.4927
15583SOL    HW148190   2.784   6.491   1.276  0.2576  0.0205 -1.7161
15583SOL    HW248191   2.726   6.367   1.341  0.7962  0.5888 -0.0833
15584SOL     OW48192   0.484   6.163   5.595  0.4911 -0.1960  0.0880
15584SOL    HW148193   0.553   6.168   5.660 -0.1317  0.7931  0.7023
15584SOL    HW248194   0.407   6.133   5.643 -0.0844  0.9488 -0.0605
15585SOL     OW48195   6.967   3.008   1.035 -0.7295  0.0494  0.3363
15585SOL    HW148196   6.964   2.983   0.943 -0.8422  0.8262  0.1187
15585SOL    HW248197   7.051   3.053   1.045 -0.9384  0.4114  0.4889
15586SOL     OW48198   7.061   1.026   2.691 -0.0761 -0.0474  0.0529
15586SOL    HW148199   7.092   1.060   2.775  2.0305  0.3577 -0.8164
15586SOL    HW248200   7.126   0.960   2.667 -0.4677  0.0629 -1.3805
15587SOL     OW48201   0.009   4.933  11.685 -0.5297 -0.7036  0.6182
15587SOL    HW148202  -0.032   4.982  11.614 -0.6084  1.3874  2.0393
15587SOL    HW248203   0.094   4.907  11.650 -0.8759 -0.3845 -0.4880
15588SOL     OW48204   3.669   5.083  10.696 -0.0738  0.0044 -0.5944
15588SOL    HW148205   3.718   5.001  10.695  0.7462  0.4822 -0.5043
15588SOL    HW248206   3.735   5.149  10.718 -1.0153  0.4896  0.8832
15589SOL     OW48207   2.327   7.664  11.053  0.2458 -0.1565  0.4629
15589SOL    HW148208   2.410   7.626  11.080  0.8732  1.4242  0.8812
15589SOL    HW248209   2.348   7.754  11.029 -0.8776 -0.4774 -2.1189
15590SOL     OW48210   7.000   5.944   5.334  0.0890 -0.5237 -0.2154
15590SOL    HW148211   7.065   5.874   5.326  0.0630 -0.6087  0.2724
15590SOL    HW248212   6.946   5.936   5.256  2.4024  1.3691 -2.1421
15591SOL     OW48213   1.320   1.868   3.085  0.2664 -0.1211 -0.7943
15591SOL    HW148214   1.254   1.827   3.139  0.3464  0.3094 -0.3638
15591SOL    HW248215   1.345   1.800   3.022  1.0288 -1.0321  0.4481
15592SOL     OW48216   6.820   3.120   3.120  0.1228 -0.6361 -0.0435
15592SOL    HW148217   6.781   3.203   3.145 -0.7538 -1.8111  2.8577
15592SOL    HW248218   6.914   3.139   3.111 -0.1813  0.8137 -0.4012
15593SOL     OW48219   2.065   0.367   7.789 -0.1757 -0.3645  0.5646
15593SOL    HW148220   1.978   0.361   7.828 -0.7663 -0.2598 -0.6626
15593SOL    HW248221   2.101   0.279   7.798 -0.8525 -0.6970  0.1310
15594SOL     OW48222   7.866   7.218   1.917 -0.0726 -0.4661 -0.1069
15594SOL    HW148223   7.916   7.213   1.836  0.1935  0.2604 -0.0005
15594SOL    HW248224   7.808   7.142   1.915 -1.5507  0.6279 -1.9585
15595SOL     OW48225   2.101   6.381   3.679  0.5050 -0.1339 -0.2030
15595SOL    HW148226   2.162   6.309   3.665  1.3782  0.6214 -0.4183
15595SOL    HW248227   2.101   6.429   3.596 -1.2459 -0.7188 -0.5984
15596SOL     OW48228   6.167   6.678  11.566  0.1767 -0.8663  0.0069
15596SOL    HW148229   6.127   6.758  11.532  0.0077 -0.3488  1.3711
15596SOL    HW248230   6.178   6.622  11.489  0.5804  0.5760 -1.0229
15597SOL     OW48231   3.984   0.645   6.584  0.2697  0.4894 -0.4579
15597SOL    HW148232   4.002   0.711   6.650 -3.5567  1.6015 -0.2440
15597SOL    HW248233   3.910   0.680   6.534 -1.3964 -3.1827 -0.9490
15598SOL     OW48234   0.055   7.337   3.331  0.0279  0.4036 -0.1415
15598SOL    HW148235   0.128   7.277   3.349  0.8366  1.6016  0.6936
15598SOL    HW248236   0.086   7.391   3.258 -0.8105 -0.3480 -1.0798
15599SOL     OW48237   3.077   6.521   7.262 -0.5179  0.3095 -0.7065
15599SOL    HW148238   3.021   6.583   7.216 -2.0504 -1.0596 -0.7901
15599SOL    HW248239   3.048   6.525   7.354  2.5142  3.0249  0.3301
15600SOL     OW48240   5.329   5.101  10.199  0.3969  0.5682 -0.1688
15600SOL    HW148241   5.257   5.143  10.152  0.7496  1.5046  0.1015
15600SOL    HW248242   5.399   5.166  10.199  1.4712 -0.5458 -0.9385
15601SOL     OW48243   1.848   0.089   1.837  0.3143  0.0275  0.2005
15601SOL    HW148244   1.878   0.085   1.928  0.6684 -0.8385  0.0586
15601SOL    HW248245   1.878   0.174   1.806 -0.1300  0.4836  1.0004
15602SOL     OW48246   5.802   1.795   9.215  0.7809  0.3334 -0.0187
15602SOL    HW148247   5.809   1.707   9.177 -1.7219  0.8584 -1.9394
15602SOL    HW248248   5.787   1.779   9.308 -0.3436 -1.3397 -0.4242
15603SOL     OW48249   6.902   4.971   0.646 -0.0641 -0.4117 -0.1964
15603SOL    HW148250   6.918   5.015   0.563 -1.2285 -0.3810 -0.4196
15603SOL    HW248251   6.855   4.891   0.622  0.3877 -0.8533  0.3637
15604SOL     OW48252   3.460   2.877   0.070  0.1078 -0.3402 -0.4110
15604SOL    HW148253   3.421   2.894  -0.016 -1.3959  0.5123  0.4054
15604SOL    HW248254   3.498   2.960   0.096  0.2341 -0.5007 -0.0773
15605SOL     OW48255   6.823   2.455   1.113 -0.1153 -0.2063 -0.1191
15605SOL    HW148256   6.907   2.452   1.160 -1.0569  1.1348  1.7902
15605SOL    HW248257   6.801   2.548   1.110 -2.0347 -0.6087  0.4041
15606SOL     OW48258   5.295   0.922  12.002 -0.2042  0.2842 -0.1221
15606SOL    HW148259   5.265   0.885  11.918 -1.5998  3.0242 -0.9499
15606SOL    HW248260   5.372   0.870  12.024 -1.6478 -2.6675 -1.4061
15607SOL     OW48261   6.283   7.645   5.249  0.2796 -0.3014 -0.1329
15607SOL    HW148262   6.275   7.600   5.334  0.0062 -1.2965 -0.6745
15607SOL    HW248263   6.359   7.702   5.260 -0.1131  0.0369  0.9787
15608SOL     OW48264   3.423   0.751   2.890  0.0601 -0.0528 -0.3072
15608SOL    HW148265   3.369   0.698   2.950  2.6279 -2.2365  0.2973
15608SOL    HW248266   3.418   0.705   2.807  1.0363 -0.3470 -0.2127
15609SOL     OW48267   0.301   6.031   6.735  0.1685  0.2179 -0.3808
15609SOL    HW148268   0.332   6.003   6.649  0.3782 -1.0377  0.0834
15609SOL    HW248269   0.379   6.030   6.790 -0.0045  0.7923 -0.1213
15610SOL     OW48270   0.598   4.736   4.929  0.1219 -0.5545  0.0782
15610SOL    HW148271   0.577   4.802   4.863 -0.0173  0.4453  1.0921
15610SOL    HW248272   0.578   4.778   5.013  2.1318 -1.0677  0.8793
15611SOL     OW48273   1.101   3.830   0.137 -0.0730 -0.4633 -0.1357
15611SOL    HW148274   1.090   3.881   0.217  0.1985  1.2131 -1.1046
15611SOL    HW248275   1.195   3.829   0.121 -0.2371  1.5579 -1.7771
15612SOL     OW48276   0.356   1.768   3.276  0.0288  0.6825  0.5655
15612SOL    HW148277   0.339   1.767   3.370  0.6543  0.5039  0.6780
15612SOL    HW248278   0.302   1.696   3.242  0.7665 -0.0762  0.9658
15613SOL     OW48279   5.382   7.565  11.215  0.0663  0.3286  0.2284
15613SOL    HW148280   5.362   7.616  11.136 -0.6720  0.7323  0.6628
15613SOL    HW248281   5.398   7.631  11.283 -0.2388 -0.0136  0.6385
15614SOL     OW48282   0.397   7.672   9.409  0.0464 -0.1630 -0.1983
15614SOL    HW148283   0.387   7.743   9.472  1.8129 -0.7965  0.8835
15614SOL    HW248284   0.336   7.604   9.439  0.2191 -0.0990  0.3067
15615SOL     OW48285   2.383   2.445   4.515  0.0470  0.5067  0.0327
15615SOL    HW148286   2.311   2.466   4.575 -0.8555 -2.8455  0.3148
15615SOL    HW248287   2.342   2.395   4.445  1.8265  0.1714 -0.8255
15616SOL     OW48288   2.124   3.077   1.766  0.1478 -0.2733 -0.2086
15616SOL    HW148289   2.219   3.064   1.777  0.0013 -1.3257 -0.0786
15616SOL    HW248290   2.114   3.101   1.674  0.5995  0.5598 -0.0563
15617SOL     OW48291   1.778   6.122  12.194  0.0825  0.5674 -0.5412
15617SOL    HW148292   1.804   6.085  12.109 -2.2902  0.6937 -1.3912
15617SOL    HW248293   1.784   6.216  12.181 -0.6267  0.5945 -0.7048
15618SOL     OW48294   7.000   7.490  12.100  0.0048  0.8931 -0.7734
15618SOL    HW148295   6.942   7.456  12.032  1.4496 -2.0446 -0.6931
15618SOL    HW248296   6.941   7.513  12.172 -1.2299 -0.0543 -1.4419
15619SOL     OW48297   4.324   7.203  10.687 -0.0191  0.1125 -0.0356
15619SOL    HW148298   4.298   7.142  10.755  1.5750 -0.2042  0.3350
15619SOL    HW248299   4.333   7.287  10.732 -0.4109  0.2298 -0.1706
15620SOL     OW48300   2.621   6.179   0.510  0.2680 -0.6127  0.6739
15620SOL    HW148301   2.557   6.172   0.439  0.4412 -1.2155  0.5681
15620SOL    HW248302   2.675   6.100   0.501  2.3655  0.8350 -0.5734
15621SOL     OW48303   0.887   0.354   2.983  0.0953 -0.1997 -0.0814
15621SOL    HW148304   0.861   0.442   3.009  0.6331 -0.8271  2.9570
15621SOL    HW248305   0.982   0.357   2.980  0.2493 -1.0634  2.0125
15622SOL     OW48306   4.494   4.825  10.226  0.3443 -0.1351 -0.7010
15622SOL    HW148307   4.498   4.914  10.192 -1.1833 -0.1146 -0.9045
15622SOL    HW248308   4.407   4.794  10.202 -0.0308 -0.8497  1.3790
15623SOL     OW48309   2.402   5.476   5.946  0.5325 -0.4525  0.0065
15623SOL    HW148310   2.435   5.565   5.937  1.0645 -0.6816 -0.3653
15623SOL    HW248311   2.320   5.476   5.896  0.4056 -0.1090  0.2114
15624SOL     OW48312   0.176   2.220   0.243  0.2112 -0.0225  0.0424
15624SOL    HW148313   0.093   2.207   0.289  0.0261 -1.1330 -0.5680
15624SOL    HW248314   0.151   2.257   0.158  0.4387  0.6759  0.2734
15625SOL     OW48315   7.751   1.450   2.712 -0.3150 -0.0973  0.4581
15625SOL    HW148316   7.825   1.420   2.765 -1.5630 -3.7044  0.4003
15625SOL    HW248317   7.679   1.458   2.775 -0.4059  1.6459  0.2024
15626SOL     OW48318   1.131   5.544   7.942  0.1981 -0.8119 -0.4920
15626SOL    HW148319   1.213   5.552   7.991  0.2885 -1.5346 -0.5157
15626SOL    HW248320   1.152   5.486   7.869 -0.1094 -0.2805 -1.0160
15627SOL     OW48321   2.860   6.376  11.541  0.3965 -0.3841  0.0672
15627SOL    HW148322   2.842   6.322  11.464 -0.4335 -1.4808  0.9910
15627SOL    HW248323   2.930   6.435  11.513  0.9805 -1.5992 -1.1342
15628SOL     OW48324   1.680   2.036  10.202 -0.1701  0.3776 -0.1304
15628SOL    HW148325   1.760   2.083  10.227 -1.0831  1.8978  0.0599
15628SOL    HW248326   1.609   2.095  10.225 -1.3294 -0.5632 -1.1160
15629SOL     OW48327   7.853   7.757  10.672  0.2127  0.8320 -0.3417
15629SOL    HW148328   7.935   7.739  10.718 -0.1204  3.1282  1.3323
15629SOL    HW248329   7.816   7.833  10.717 -1.6352  1.4059 -2.6040
15630SOL     OW48330   7.626   3.170  11.989  0.5240 -0.1092  0.0443
15630SOL    HW148331   7.629   3.254  11.944  0.3443  1.1625  2.2620
15630SOL    HW248332   7.684   3.114  11.938  0.8010  1.3918 -1.3961
15631SOL     OW48333   6.318   6.282   4.805 -0.2458  0.0117  0.1827
15631SOL    HW148334   6.298   6.213   4.741  2.0632 -2.6641  2.0963
15631SOL    HW248335   6.243   6.280   4.865 -0.4721 -0.4375 -0.1017
15632SOL     OW48336   4.982   0.511   2.512 -0.1907  0.7074 -0.0405
15632SOL    HW148337   4.922   0.537   2.582 -0.0368  1.3442 -0.1423
15632SOL    HW248338   4.925   0.484   2.440 -0.3504  0.6727  0.0982
15633SOL     OW48339   4.875   3.059   1.709 -0.3968 -0.0843 -0.1450
15633SOL    HW148340   4.887   3.148   1.740  0.2848 -0.7411  1.6253
15633SOL    HW248341   4.943   3.009   1.753 -1.6163 -1.7209 -0.0111
15634SOL     OW48342   5.255   4.425  10.441 -0.3454 -0.0833  0.0464
15634SOL    HW148343   5.253   4.514  10.476 -1.1625  0.4193 -1.2411
15634SOL    HW248344   5.188   4.424  10.373  0.6703 -1.2503 -0.9853
15635SOL     OW48345   5.889   6.786   1.485  0.7317 -0.2959  0.4432
15635SOL    HW148346   5.927   6.831   1.560  0.9579  1.9840 -0.9280
15635SOL    HW248347   5.873   6.856   1.421  0.9839 -2.1781 -1.8239
15636SOL     OW48348   0.241   4.700   5.731 -0.1379  0.2275  0.3138
15636SOL    HW148349   0.280   4.673   5.815 -0.3008  0.6819  0.5352
15636SOL    HW248350   0.241   4.795   5.734 -1.2149  0.2432  0.2938
15637SOL     OW48351   0.320   0.045   1.687 -0.1566  0.1877  0.0274
15637SOL    HW148352   0.399   0.092   1.658 -0.2777  0.0059 -0.6088
15637SOL    HW248353   0.336  -0.046   1.661 -0.0044 -0.0956  1.0891
15638SOL     OW48354   4.080   3.625  10.226 -0.0928  0.0194  0.1135
15638SOL    HW148355   4.135   3.687  10.178 -0.5306 -0.2362 -0.7423
15638SOL    HW248356   3.991   3.648  10.200 -0.3128 -0.3777  0.5140
15639SOL     OW48357   6.209   2.310   9.879  0.0590 -0.5509 -0.7539
15639SOL    HW148358   6.120   2.330   9.849 -0.4601 -2.1981 -0.3990
15639SOL    HW248359   6.261   2.384   9.847 -1.3193  0.1615 -1.4864
15640SOL     OW48360   1.300   5.736  11.802 -0.1491  0.0225  0.1516
15640SOL    HW148361   1.383   5.702  11.835  0.3951  1.8380  0.7354
15640SOL    HW248362   1.319   5.766  11.713  0.2857  1.9459  0.8493
15641SOL     OW48363   7.730   1.163   6.949 -0.5070  0.4177  0.1046
15641SOL    HW148364   7.754   1.101   6.880 -0.7686 -0.0144  0.3982
15641SOL    HW248365   7.814   1.198   6.979 -0.3594  0.2496 -0.1057
15642SOL     OW48366   4.161   6.031   4.524  0.3261  0.1112  0.1153
15642SOL    HW148367   4.178   5.960   4.586 -0.3714 -0.4518 -0.3158
15642SOL    HW248368   4.198   6.000   4.441 -0.2238  0.1146 -0.1409
15643SOL     OW48369   3.818   4.199   4.112  0.8078 -0.3977  0.1304
15643SOL    HW148370   3.810   4.105   4.094  0.6426 -0.1190 -1.3666
15643SOL    HW248371   3.906   4.209   4.148  0.9560 -1.0784 -0.0327
15644SOL     OW48372   2.316   6.188   8.291  0.2477 -0.0211  0.6396
15644SOL    HW148373   2.360   6.254   8.238  1.3750 -0.5334  0.8956
15644SOL    HW248374   2.386   6.127   8.316 -0.7823 -1.4256  0.2501
15645SOL     OW48375   6.718   5.562   4.893 -0.4074 -0.7253  0.4914
15645SOL    HW148376   6.649   5.501   4.918 -0.7248 -0.4158  0.3839
15645SOL    HW248377   6.677   5.620   4.829 -0.6056  0.5986  1.7364
15646SOL     OW48378   1.407   4.686   1.312  0.1254  0.0662 -0.2810
15646SOL    HW148379   1.463   4.627   1.362  0.5218  0.8275  0.1882
15646SOL    HW248380   1.463   4.718   1.241 -0.8581 -2.1785 -2.1885
15647SOL     OW48381   5.248   0.117   0.103 -0.2507  0.2478 -0.4453
15647SOL    HW148382   5.206   0.089   0.183 -0.7838  1.6308 -0.2011
15647SOL    HW248383   5.182   0.104   0.035 -0.2720  0.3056 -0.4359
15648SOL     OW48384   6.494   2.891  10.870  0.0804 -0.6530 -0.2535
15648SOL    HW148385   6.515   2.847  10.787  1.6547  0.0426 -0.2501
15648SOL    HW248386   6.406   2.926  10.856  0.1324 -0.9480 -1.4556
15649SOL     OW48387   5.378   1.161   0.396  0.3148  0.0012  0.0104
15649SOL    HW148388   5.431   1.126   0.468  0.4012  0.3112  0.0985
15649SOL    HW248389   5.295   1.185   0.436  0.2799 -0.0382 -0.0378
15650SOL     OW48390   6.132   4.790   6.285 -0.0222  0.1986  0.0766
15650SOL    HW148391   6.095   4.724   6.225 -2.5642  0.7335  0.9036
15650SOL    HW248392   6.172   4.739   6.355  0.0551 -0.4621 -0.4383
15651SOL     OW48393   5.154   6.934   4.634  0.5479 -0.1244  0.3115
15651SOL    HW148394   5.161   6.906   4.725  1.1047 -0.1103  0.2783
15651SOL    HW248395   5.204   6.869   4.585  2.0335  1.0104  0.2582
15652SOL     OW48396   7.319   3.160   2.148 -0.4815  0.7032 -0.3107
15652SOL    HW148397   7.276   3.212   2.216  1.7438  0.6338  1.2498
15652SOL    HW248398   7.338   3.222   2.078 -0.2104  1.4182  0.3858
15653SOL     OW48399   0.127   0.614   3.903 -0.4143 -0.0814 -0.2374
15653SOL    HW148400   0.181   0.589   3.978 -0.9239  0.8016  0.4405
15653SOL    HW248401   0.064   0.676   3.939 -0.0502  1.1146 -1.5897
15654SOL     OW48402   7.600   1.986  10.122 -0.4193  0.3206 -0.3229
15654SOL    HW148403   7.529   1.953  10.068 -0.1790 -1.6363  0.4621
15654SOL    HW248404   7.557   2.022  10.200 -0.5695 -1.9146  0.6929
15655SOL     OW48405   2.439   7.311  10.769  0.7974  0.4471 -0.0100
15655SOL    HW148406   2.454   7.389  10.717 -0.1597  0.3696 -0.4332
15655SOL    HW248407   2.359   7.331  10.818  2.2868  0.9827  2.3549
15656SOL     OW48408   0.651   4.105   9.839 -0.3010 -0.1618 -0.0243
15656SOL    HW148409   0.651   4.200   9.835  1.1271 -0.1415 -0.1018
15656SOL    HW248410   0.595   4.084   9.914  0.7516  0.8194  1.0765
15657SOL     OW48411   1.107   2.367   2.922  0.8406 -0.0855 -0.0954
15657SOL    HW148412   1.120   2.411   3.006 -0.1176  0.8980 -0.4408
15657SOL    HW248413   1.015   2.341   2.921  0.9455 -0.4701 -0.6713
15658SOL     OW48414   1.923   5.618   0.312  0.3622 -0.1948 -0.3523
15658SOL    HW148415   1.939   5.701   0.356 -0.0592  0.2094 -0.9566
15658SOL    HW248416   1.886   5.562   0.380  2.0446 -0.3897  0.4491
15659SOL     OW48417   0.617   4.416  10.883  0.5110 -0.6737 -0.2157
15659SOL    HW148418   0.624   4.321  10.885 -0.3596 -0.8847 -2.7569
15659SOL    HW248419   0.696   4.445  10.837 -0.1784 -0.3916 -1.2767
15660SOL     OW48420   5.932   6.632  12.048 -0.1861  0.0651  0.4246
15660SOL    HW148421   5.959   6.678  11.969  0.0322  3.1254  2.1313
15660SOL    HW248422   5.920   6.541  12.020  2.2703  0.4832 -2.5545
15661SOL     OW48423   4.805   2.229   7.011 -0.1840  0.2636 -0.3413
15661SOL    HW148424   4.854   2.288   7.069 -2.7569  1.5709  0.6910
15661SOL    HW248425   4.762   2.288   6.949 -2.1141 -0.5655  0.1390
15662SOL     OW48426   1.282   4.788   3.966  0.1605 -0.1989  0.4276
15662SOL    HW148427   1.223   4.851   4.006  1.7553  0.9757  1.0188
15662SOL    HW248428   1.320   4.835   3.892 -0.4257 -1.3108 -0.6167
15663SOL     OW48429   2.738   3.491   2.007  0.0594 -0.2504  0.7198
15663SOL    HW148430   2.761   3.442   1.928 -0.3842  1.2195 -0.3755
15663SOL    HW248431   2.812   3.476   2.066  1.4120  0.1998 -0.7529
15664SOL     OW48432   3.928   4.221  11.478 -0.2364 -0.2562  0.0329
15664SOL    HW148433   3.940   4.165  11.402  1.1281  1.4132 -1.0680
15664SOL    HW248434   3.996   4.193  11.539  0.3418  0.0817 -0.4478
15665SOL     OW48435   3.256   6.342   5.294 -0.4499 -0.1912 -0.5226
15665SOL    HW148436   3.258   6.427   5.338 -0.3200  0.0881 -1.0555
15665SOL    HW248437   3.162   6.324   5.281 -0.5090 -0.5144  0.3093
15666SOL     OW48438   5.822   5.573   1.628 -0.2757  0.0232  0.1295
15666SOL    HW148439   5.830   5.593   1.535 -0.4169  2.2425  0.5526
15666SOL    HW248440   5.911   5.552   1.656  0.5484  3.2941  0.2779
15667SOL     OW48441   1.713   0.693   5.155  0.0182 -0.6473 -0.0523
15667SOL    HW148442   1.747   0.779   5.181  0.2387 -0.6056 -0.4793
15667SOL    HW248443   1.647   0.712   5.089 -0.6286 -0.7493  0.5511
15668SOL     OW48444   7.275   3.105   7.892  0.1021  0.3846 -0.0756
15668SOL    HW148445   7.270   3.133   7.983  1.3798  1.1795 -0.2265
15668SOL    HW248446   7.216   3.030   7.887  0.4865 -0.0666  1.5492
15669SOL     OW48447   5.811   1.087  10.496 -0.1189  0.0925 -0.1366
15669SOL    HW148448   5.739   1.127  10.448  0.6064  2.3053  0.4966
15669SOL    HW248449   5.887   1.096  10.438 -0.0598 -0.9908 -0.2446
15670SOL     OW48450   5.758   5.888   9.115  0.5536  0.6217  0.1109
15670SOL    HW148451   5.712   5.810   9.147  1.9935 -0.5053 -0.4270
15670SOL    HW248452   5.772   5.870   9.022  1.2580  1.3504  0.0735
15671SOL     OW48453   5.588   2.293   4.401 -0.2506 -0.2088  0.0181
15671SOL    HW148454   5.644   2.221   4.432 -0.6385 -0.8052 -0.6124
15671SOL    HW248455   5.509   2.286   4.454 -0.7299 -0.9446 -0.7669
15672SOL     OW48456   0.783   6.050   6.981  0.2472  0.0338  0.3524
15672SOL    HW148457   0.860   6.088   7.022 -0.8449  0.5337  2.0500
15672SOL    HW248458   0.773   5.965   7.024  0.7385 -0.7356 -1.0043
15673SOL     OW48459   4.474   6.711   8.776 -0.1810 -0.3684 -0.0334
15673SOL    HW148460   4.456   6.719   8.870 -0.4049 -0.0679 -0.0986
15673SOL    HW248461   4.539   6.779   8.759  0.1810 -0.7116 -0.0124
15674SOL     OW48462   7.788   7.625   1.831  0.5467 -0.0196 -0.6924
15674SOL    HW148463   7.796   7.700   1.890  0.0543  1.5369 -2.4837
15674SOL    HW248464   7.849   7.645   1.760 -1.1418 -0.1943 -2.2790
15675SOL     OW48465   2.871   3.920   3.941  0.1835 -0.0995 -0.1376
15675SOL    HW148466   2.819   3.879   3.872  0.0318 -0.3156  0.1045
15675SOL    HW248467   2.893   3.849   4.001 -0.1054  0.1726  0.2972
15676SOL     OW48468   7.057   6.423  11.737 -0.0548 -0.1544  0.6771
15676SOL    HW148469   7.112   6.350  11.709 -0.3439  0.2486 -0.9883
15676SOL    HW248470   7.017   6.392  11.819  2.0357 -0.7295  1.5505
15677SOL     OW48471   1.162   6.858  11.089  0.0615  0.3241 -0.4650
15677SOL    HW148472   1.100   6.785  11.083  1.1775 -0.6151 -0.7594
15677SOL    HW248473   1.165   6.894  11.001 -0.7183  0.9416 -0.2534
15678SOL     OW48474   5.005   3.364  10.066  0.0645  0.1166 -0.1033
15678SOL    HW148475   4.977   3.274  10.052 -0.0584  0.2263 -0.5829
15678SOL    HW248476   5.100   3.359  10.076  0.1865  0.0416 -1.1671
15679SOL     OW48477   7.025   7.761  10.577  0.2977 -0.1144  0.1647
15679SOL    HW148478   7.062   7.695  10.517 -0.2165  0.0841 -0.3858
15679SOL    HW248479   7.100   7.793  10.627  0.6130 -0.8646  0.1885
15680SOL     OW48480   1.140   5.221   3.862  0.1419 -0.0486 -0.1192
15680SOL    HW148481   1.181   5.306   3.846 -1.4390  0.9966  1.0698
15680SOL    HW248482   1.079   5.209   3.789 -0.3945  0.3481  0.2588
15681SOL     OW48483   1.486   2.532   8.215  0.3003 -0.1203  0.1728
15681SOL    HW148484   1.500   2.589   8.291  1.4257  0.6395 -0.5643
15681SOL    HW248485   1.458   2.449   8.252  0.4246  0.3651  1.3960
15682SOL     OW48486   5.829   1.429  11.617 -0.4759 -0.4360 -0.2716
15682SOL    HW148487   5.879   1.505  11.649  0.5092 -1.1127 -0.1296
15682SOL    HW248488   5.791   1.390  11.696  1.7433 -1.9563  0.1614
15683SOL     OW48489   7.299   3.111   9.480 -0.6873  0.2495  0.7763
15683SOL    HW148490   7.270   3.029   9.520 -1.8798 -0.5385 -1.5450
15683SOL    HW248491   7.360   3.085   9.411 -0.2234  1.4014  0.7174
15684SOL     OW48492   5.010   4.394   2.243  0.1715  0.3345  0.1430
15684SOL    HW148493   5.016   4.470   2.185 -0.0507  1.3810  1.4238
15684SOL    HW248494   5.057   4.422   2.322  0.0775 -0.8681  0.6375
15685SOL     OW48495   0.706   1.663   2.640  0.2595 -0.0101 -0.0147
15685SOL    HW148496   0.671   1.705   2.718 -0.0970 -0.2073 -0.0639
15685SOL    HW248497   0.633   1.611   2.606  0.2252  0.5411 -0.8085
15686SOL     OW48498   1.508   2.485  11.141  0.3443  0.1629  0.0173
15686SOL    HW148499   1.549   2.423  11.081 -1.3418  0.6299 -1.7346
15686SOL    HW248500   1.416   2.488  11.112 -0.4124  0.8402  2.2985
15687SOL     OW48501   3.366   0.372   1.677  0.1747 -0.6475 -0.5932
15687SOL    HW148502   3.343   0.464   1.663 -0.2005 -0.8323 -1.2108
15687SOL    HW248503   3.461   0.372   1.683  0.1384 -0.1311  0.0754
15688SOL     OW48504   6.490   0.459   6.300 -0.1779 -0.4505  0.1117
15688SOL    HW148505   6.416   0.409   6.266 -0.5859  0.7585 -0.8434
15688SOL    HW248506   6.495   0.536   6.244 -0.2069  1.1139  2.1202
15689SOL     OW48507   0.530   3.914   6.666  0.0799  0.2160 -0.1422
15689SOL    HW148508   0.602   3.860   6.698 -0.7079 -0.6189  0.2739
15689SOL    HW248509   0.471   3.922   6.741  0.1628  1.6629 -0.1966
15690SOL     OW48510   0.831   4.373   2.763 -0.2957 -0.2390  0.2174
15690SOL    HW148511   0.869   4.456   2.793  0.9470 -0.5120 -0.5282
15690SOL    HW248512   0.755   4.398   2.712  0.3866  0.4895 -0.4598
15691SOL     OW48513   5.601   7.587   2.607  0.2502 -0.0621  0.1969
15691SOL    HW148514   5.622   7.507   2.559 -2.5691 -1.0697  0.4270
15691SOL    HW248515   5.614   7.565   2.699 -1.6178 -0.7278  0.3489
15692SOL     OW48516   3.673   6.070   1.487 -0.3971 -0.4801 -1.0583
15692SOL    HW148517   3.620   6.142   1.452 -1.2062 -0.6267 -0.1781
15692SOL    HW248518   3.618   6.030   1.555  0.2403 -1.6169 -1.1862
15693SOL     OW48519   3.550   1.041   1.502 -0.1213 -0.0176 -0.7349
15693SOL    HW148520   3.459   1.065   1.489 -0.3351 -0.6116 -0.3927
15693SOL    HW248521   3.566   0.970   1.440 -0.2549 -0.7502  0.0467
15694SOL     OW48522   3.338   7.845   8.323  0.5218  0.0167  0.4925
15694SOL    HW148523   3.392   7.850   8.245  0.1237 -0.5382  0.1771
15694SOL    HW248524   3.295   7.931   8.328 -0.5199 -0.4040 -0.6846
15695SOL     OW48525   5.885   0.053   0.435 -0.2369 -0.4922 -0.1855
15695SOL    HW148526   5.882   0.136   0.483 -0.3102 -1.1227  0.9613
15695SOL    HW248527   5.840  -0.009   0.493  0.0444 -1.3914 -0.9026
15696SOL     OW48528   7.062   4.056   9.789  0.1581 -0.6702  0.0451
15696SOL    HW148529   6.993   4.009   9.743 -0.2539  0.8750 -0.9896
15696SOL    HW248530   7.032   4.057   9.880 -0.1841 -1.7347 -0.0387
15697SOL     OW48531   5.139   7.653   5.419 -0.2357 -1.1023 -0.2954
15697SOL    HW148532   5.157   7.628   5.328  0.6645  0.7878 -0.6748
15697SOL    HW248533   5.134   7.569   5.466 -0.8608 -2.1252 -2.0869
15698SOL     OW48534   6.295   0.996   7.166 -0.2980  0.2611  0.2201
15698SOL    HW148535   6.326   0.985   7.076  1.4299 -0.2086  0.8298
15698SOL    HW248536   6.275   0.907   7.195  0.9825  0.1655  0.8870
15699SOL     OW48537   3.619   1.299   6.698  0.0702  0.1032  0.1688
15699SOL    HW148538   3.535   1.252   6.696 -0.5168  1.0896  0.6499
15699SOL    HW248539   3.663   1.273   6.618 -1.3850  0.7553 -0.8869
15700SOL     OW48540   0.958   0.234  10.569  0.0892 -0.8064  0.5187
15700SOL    HW148541   0.941   0.327  10.552  0.3649 -0.5687  1.4765
15700SOL    HW248542   1.053   0.228  10.574  0.0822 -1.2008  0.1507
15701SOL     OW48543   7.668   3.310   7.445  0.1356 -0.2282 -0.3394
15701SOL    HW148544   7.753   3.283   7.482 -0.5746 -1.4596  0.4534
15701SOL    HW248545   7.615   3.332   7.522 -0.1586  0.9065 -0.8498
15702SOL     OW48546   4.159   5.073   3.381  0.4366 -0.1274  0.3656
15702SOL    HW148547   4.193   5.016   3.451 -0.7168 -1.0279  0.2245
15702SOL    HW248548   4.226   5.141   3.371  1.1008 -0.5535  1.6454
15703SOL     OW48549   2.386   6.247   3.165 -0.0259 -0.1656  0.2114
15703SOL    HW148550   2.466   6.200   3.189 -0.6892 -0.5584  1.7240
15703SOL    HW248551   2.319   6.179   3.163 -0.4939  0.3090 -0.2002
15704SOL     OW48552   1.847   0.365   1.329 -0.0264  0.1576 -0.1547
15704SOL    HW148553   1.878   0.324   1.248  1.5896 -0.5873  0.7910
15704SOL    HW248554   1.767   0.318   1.350  0.8658 -1.3742 -0.0261
15705SOL     OW48555   4.536   7.698   3.677  0.1453 -0.4420  0.2855
15705SOL    HW148556   4.478   7.769   3.705 -1.6585 -2.3006  1.6140
15705SOL    HW248557   4.512   7.625   3.734  1.0289 -2.4842 -1.8281
15706SOL     OW48558   2.965   5.580   7.913  0.2608  0.5247 -0.5095
15706SOL    HW148559   2.935   5.636   7.842 -1.4199 -0.3075 -0.4883
15706SOL    HW248560   2.961   5.491   7.878 -2.6400 -0.1415  1.2049
15707SOL     OW48561   7.718   4.934   2.590 -0.0778 -0.7328  0.1875
15707SOL    HW148562   7.666   4.925   2.510 -0.6633 -1.9703  0.6903
15707SOL    HW248563   7.704   5.025   2.617 -0.2790 -0.4462 -0.8362
15708SOL     OW48564   6.349   0.663   5.399  0.4465 -0.2862 -0.0400
15708SOL    HW148565   6.428   0.619   5.372  0.6914 -0.4527  0.9006
15708SOL    HW248566   6.334   0.730   5.332  0.9560 -0.7379 -0.6139
15709SOL     OW48567   5.562   5.953   5.009  0.2294  0.6625  0.0488
15709SOL    HW148568   5.562   5.861   4.983 -1.9998  0.6240 -0.0037
15709SOL    HW248569   5.589   6.000   4.930 -0.7933  0.1824 -0.5965
15710SOL     OW48570   2.787   3.674   7.895  0.1371 -0.3047 -0.5074
15710SOL    HW148571   2.744   3.588   7.891  0.4070 -0.4976 -4.6952
15710SOL    HW248572   2.867   3.662   7.843  1.5156  1.8853  0.9608
15711SOL     OW48573   3.657   3.066   0.167  0.2779 -0.4680 -0.4075
15711SOL    HW148574   3.678   3.090   0.077  1.1252  1.7660  0.3227
15711SOL    HW248575   3.685   3.141   0.219  0.9901 -2.2203  1.8697
15712SOL     OW48576   5.081   5.230   3.328  0.1091  0.1074  0.1557
15712SOL    HW148577   5.059   5.160   3.389 -1.5523  0.5805  0.1514
15712SOL    HW248578   5.100   5.305   3.385  3.0086 -0.5508  0.2130
15713SOL     OW48579   7.286   4.677   1.109  0.3657 -0.0611 -0.1605
15713SOL    HW148580   7.285   4.741   1.180  0.0592 -1.1649  0.8638
15713SOL    HW248581   7.196   4.673   1.078 -0.4049 -2.4511  2.1074
15714SOL     OW48582   0.659   5.588  10.403  0.7791  0.1642 -0.3759
15714SOL    HW148583   0.718   5.518  10.431  2.7495  1.1488 -1.8043
15714SOL    HW248584   0.678   5.600  10.310  0.3823  2.4556 -0.2249
15715SOL     OW48585   6.610   0.327   7.186 -0.0461 -0.1962  0.4366
15715SOL    HW148586   6.674   0.355   7.121  0.6905  0.3449  1.3743
15715SOL    HW248587   6.618   0.231   7.188 -0.5404 -0.2859 -0.7123
15716SOL     OW48588   7.132   4.279   8.897 -0.0843  0.3011 -0.0954
15716SOL    HW148589   7.148   4.209   8.961 -0.2493  1.5202  1.3329
15716SOL    HW248590   7.083   4.236   8.827  2.1756 -1.6559 -0.6468
15717SOL     OW48591   1.388   6.726  12.353 -0.0359 -0.1471  0.3638
15717SOL    HW148592   1.350   6.694  12.434  0.8814  0.6015  1.1189
15717SOL    HW248593   1.390   6.650  12.295  2.4297 -1.6497  2.2084
15718SOL     OW48594   2.141   1.254   0.782  0.4305 -0.0684 -0.0060
15718SOL    HW148595   2.156   1.171   0.737  0.3475  0.0927 -0.3357
15718SOL    HW248596   2.201   1.316   0.739 -0.0312  0.2092 -0.2615
15719SOL     OW48597   4.838   4.558   7.347 -0.1513 -0.0638  0.3075
15719SOL    HW148598   4.844   4.638   7.400  1.7485  0.6542 -0.8461
15719SOL    HW248599   4.865   4.586   7.259 -0.4413 -1.7732 -0.3657
15720SOL     OW48600   4.984   6.927   7.911 -0.4751 -0.1249 -0.6553
15720SOL    HW148601   5.022   6.948   7.996  0.2873 -2.1261 -0.4568
15720SOL    HW248602   5.016   6.996   7.853  0.5760  0.1877  0.2701
15721SOL     OW48603   2.527   5.004   3.749  0.1746  0.3674 -0.3219
15721SOL    HW148604   2.493   5.015   3.838  1.3952  1.6069  0.0196
15721SOL    HW248605   2.613   4.965   3.760  0.1605  0.1218 -1.0013
15722SOL     OW48606   6.480   7.326   8.125  0.0893 -0.0854 -0.4777
15722SOL    HW148607   6.437   7.254   8.171  1.0728 -0.6267 -0.4016
15722SOL    HW248608   6.486   7.396   8.191 -0.5508 -0.0359 -0.4562
15723SOL     OW48609   1.390   4.893  10.657 -0.1846  0.1484  0.5782
15723SOL    HW148610   1.316   4.848  10.698 -0.3534  0.6521  0.8261
15723SOL    HW248611   1.443   4.822  10.619 -0.8603 -0.2072  0.2801
15724SOL     OW48612   2.679   7.753   9.835  0.2541  0.6106 -0.2215
15724SOL    HW148613   2.661   7.847   9.841 -0.3757  0.4896 -0.1543
15724SOL    HW248614   2.687   7.736   9.741  1.8561  0.9910 -0.1929
15725SOL     OW48615   0.867   4.754   4.050 -0.2790  0.1845  0.3106
15725SOL    HW148616   0.894   4.823   3.989  0.2604  0.0115  0.3499
15725SOL    HW248617   0.776   4.775   4.071 -1.0587 -0.7090 -1.9008
15726SOL     OW48618   4.682   3.012   2.346 -0.4750 -0.1602 -0.0524
15726SOL    HW148619   4.651   3.032   2.435  0.0993 -1.1038  0.3822
15726SOL    HW248620   4.630   2.936   2.320  0.6096 -1.0303  0.2249
15727SOL     OW48621   2.217   0.307  11.398  0.3389 -0.2129  0.5558
15727SOL    HW148622   2.225   0.240  11.466  0.9738 -2.3714 -1.5549
15727SOL    HW248623   2.301   0.308  11.354 -0.4947  0.1164 -1.1231
15728SOL     OW48624   1.013   3.055  10.429 -0.0042 -0.1039  0.3032
15728SOL    HW148625   1.094   3.078  10.385 -1.3378 -0.6264 -2.6983
15728SOL    HW248626   0.965   3.137  10.437  1.2071  0.4074  3.1510
15729SOL     OW48627   6.057   7.904   5.133  0.6595 -0.4292 -0.4448
15729SOL    HW148628   5.966   7.878   5.146  0.9463 -0.6040  1.5695
15729SOL    HW248629   6.081   7.866   5.049 -0.8825 -1.0887 -0.6246
15730SOL     OW48630   6.160   4.153   8.872  0.2118  0.0205 -0.4044
15730SOL    HW148631   6.157   4.170   8.967  2.4023  0.0520 -0.2849
15730SOL    HW248632   6.143   4.238   8.832  0.8126  0.3320 -0.0050
15731SOL     OW48633   7.410   0.625   4.330 -0.1119  0.5540 -0.0789
15731SOL    HW148634   7.369   0.618   4.415 -0.1047  0.0032 -0.1186
15731SOL    HW248635   7.353   0.683   4.279  0.9889  2.6782  0.9649
15732SOL     OW48636   5.463   4.622   5.699  0.0752 -0.0068 -0.3739
15732SOL    HW148637   5.456   4.681   5.624 -1.0783 -0.7181 -0.8478
15732SOL    HW248638   5.531   4.560   5.673  1.3133  1.0874  0.1385
15733SOL     OW48639   7.910   2.425   9.095 -0.2628 -0.3522 -0.6931
15733SOL    HW148640   7.852   2.455   9.165 -1.2745 -2.3013 -0.6211
15733SOL    HW248641   7.998   2.447   9.126 -0.8131  0.5607  0.2817
15734SOL     OW48642   5.652   7.346   3.865 -0.1029 -0.0601  0.1378
15734SOL    HW148643   5.664   7.257   3.831 -0.6993 -0.3062  0.5606
15734SOL    HW248644   5.733   7.363   3.913  0.3129 -0.0997 -0.5251
15735SOL     OW48645   7.591   4.941   4.618  0.5668 -0.3436 -0.3434
15735SOL    HW148646   7.574   4.912   4.529  0.3530 -1.0551 -0.0820
15735SOL    HW248647   7.514   4.993   4.642  0.6723 -0.0663 -0.6068
15736SOL     OW48648   6.271   7.158   9.897 -0.1088  0.0319 -0.6510
15736SOL    HW148649   6.305   7.125   9.980 -2.4319  2.2011  1.3609
15736SOL    HW248650   6.322   7.237   9.879  0.4858 -0.5080 -1.4249
15737SOL     OW48651   7.507   2.785   8.432 -0.5871 -0.5001  0.4276
15737SOL    HW148652   7.547   2.731   8.364  1.7188  0.1010  1.2360
15737SOL    HW248653   7.564   2.774   8.508 -2.1200  0.2296  1.7352
15738SOL     OW48654   3.351   7.682   5.144 -0.2799 -1.1326  0.4763
15738SOL    HW148655   3.350   7.774   5.115 -1.1659 -0.9493  1.0500
15738SOL    HW248656   3.426   7.644   5.100 -0.7675 -0.5060 -0.9374
15739SOL     OW48657   3.895   0.695   9.538  0.4312  0.0540  0.7172
15739SOL    HW148658   3.891   0.701   9.442  1.5321 -1.0105  0.5794
15739SOL    HW248659   3.986   0.671   9.557 -0.5225 -3.0946  1.8046
15740SOL     OW48660   7.519   1.319   6.657 -0.2446 -0.6355  0.2644
15740SOL    HW148661   7.444   1.378   6.660  0.3084  0.1817 -0.9234
15740SOL    HW248662   7.563   1.331   6.741 -0.7878 -0.2385  0.4975
15741SOL     OW48663   2.366   1.713   0.876  0.0483 -0.4076  0.5823
15741SOL    HW148664   2.447   1.679   0.837 -0.3209 -0.7304  0.0938
15741SOL    HW248665   2.372   1.688   0.968 -0.4679 -2.2943  0.1302
15742SOL     OW48666   6.223   7.786   4.651 -0.2841  0.1483 -0.6886
15742SOL    HW148667   6.317   7.775   4.668 -0.7084 -1.6509  0.7045
15742SOL    HW248668   6.219   7.821   4.562  1.7318  1.5069 -0.3228
15743SOL     OW48669   2.593   1.698   3.037  0.0777  0.4482  0.0980
15743SOL    HW148670   2.510   1.654   3.021  0.5568 -0.1936 -0.7260
15743SOL    HW248671   2.594   1.772   2.976  0.3678  0.1015 -0.3195
15744SOL     OW48672   6.818   5.459   3.645 -0.1706  0.1795  0.0164
15744SOL    HW148673   6.745   5.447   3.584 -0.2195 -0.2960  0.1615
15744SOL    HW248674   6.811   5.385   3.706 -0.3892  0.9023  0.8781
15745SOL     OW48675   1.665   4.348   7.487 -0.5595 -0.1714  0.0815
15745SOL    HW148676   1.581   4.334   7.443 -1.0186 -0.5992  1.0508
15745SOL    HW248677   1.707   4.419   7.438 -1.8810  0.6749  0.1302
15746SOL     OW48678   1.859   4.938   9.413 -0.4343 -0.1091 -0.1841
15746SOL    HW148679   1.875   5.023   9.373  1.2880 -0.1498  0.3374
15746SOL    HW248680   1.851   4.878   9.339 -1.3956  0.4335 -0.5448
15747SOL     OW48681   7.543   2.493   1.738  0.0721 -0.6742 -0.1205
15747SOL    HW148682   7.501   2.553   1.800  0.9660 -0.0220 -0.1230
15747SOL    HW248683   7.538   2.407   1.781  0.5180 -0.2630  0.7855
15748SOL     OW48684   2.801   4.097   7.437 -0.1220  0.3735  0.6577
15748SOL    HW148685   2.718   4.145   7.441  0.5688  1.6329  0.3954
15748SOL    HW248686   2.867   4.161   7.462  1.0682  0.1924 -1.7181
15749SOL     OW48687   6.022   1.318   6.684  0.5467  0.0781 -0.1130
15749SOL    HW148688   5.996   1.332   6.592 -1.5500  0.9962  0.5462
15749SOL    HW248689   5.956   1.258   6.718  1.7253 -0.8270  0.6498
15750SOL     OW48690   5.853   7.265   2.188  0.4211  0.2055  0.5115
15750SOL    HW148691   5.902   7.240   2.267  0.4904 -0.8862  0.1421
15750SOL    HW248692   5.896   7.217   2.118 -0.9400 -0.4763  0.1149
15751SOL     OW48693   6.273   2.984   9.465  0.3285  0.1892 -0.5288
15751SOL    HW148694   6.228   2.962   9.547  1.5673  3.7407  1.3101
15751SOL    HW248695   6.209   3.033   9.414  0.3154  0.0985 -0.6005
15752SOL     OW48696   1.586   2.796   1.223  0.4105  0.9029  0.2721
15752SOL    HW148697   1.557   2.818   1.135  1.6471  1.8066  0.0669
15752SOL    HW248698   1.530   2.849   1.280 -0.7979 -0.1271  0.1014
15753SOL     OW48699   5.181   5.905  12.242 -0.6605 -0.2627  0.2213
15753SOL    HW148700   5.252   5.903  12.177 -0.4111 -0.8732  0.5011
15753SOL    HW248701   5.106   5.866  12.197 -0.8482  0.4593 -0.1031
15754SOL     OW48702   6.387   3.183   5.917  0.5570  0.2805 -0.1223
15754SOL    HW148703   6.322   3.139   5.971  0.7624 -1.1008 -0.9305
15754SOL    HW248704   6.343   3.197   5.833  1.2297 -0.5685 -0.6381
15755SOL     OW48705   5.282   0.671   2.165 -0.4717 -0.4250 -0.0917
15755SOL    HW148706   5.335   0.598   2.197 -1.5468 -1.0783  0.2688
15755SOL    HW248707   5.223   0.691   2.238 -0.9942  0.0217 -0.6265
15756SOL     OW48708   3.640   4.473   6.493 -0.2390  0.3602  0.2490
15756SOL    HW148709   3.677   4.411   6.431 -1.2855 -0.4955  0.4491
15756SOL    HW248710   3.569   4.515   6.446  0.4195  1.3797  0.1386
15757SOL     OW48711   4.384   0.428   8.001 -0.5894 -0.1831  0.1495
15757SOL    HW148712   4.339   0.411   7.919 -0.0271  0.0705 -0.2176
15757SOL    HW248713   4.315   0.425   8.068 -1.1279  0.1308 -0.3906
15758SOL     OW48714   2.376   2.821   2.948  0.0688  0.3713 -0.4889
15758SOL    HW148715   2.420   2.901   2.975  0.1138  0.3516 -0.5034
15758SOL    HW248716   2.425   2.751   2.991 -0.7418  0.4267  0.5592
15759SOL     OW48717   5.479   4.165   7.900  0.3007  0.0501 -0.0036
15759SOL    HW148718   5.460   4.246   7.853 -1.0724 -0.2311  0.0436
15759SOL    HW248719   5.483   4.098   7.832 -0.9192 -0.2255  0.1734
15760SOL     OW48720   1.212   7.454   2.982  0.0466  0.0209 -0.8296
15760SOL    HW148721   1.149   7.402   2.931 -0.5954  1.1084 -1.2038
15760SOL    HW248722   1.290   7.458   2.926  0.2906 -0.9544 -0.5686
15761SOL     OW48723   4.470   4.305   8.451  0.0398  0.3805 -0.0467
15761SOL    HW148724   4.559   4.337   8.442  0.5072 -0.0593  2.3984
15761SOL    HW248725   4.418   4.384   8.471  0.2022  0.3791  0.3778
15762SOL     OW48726   5.713   0.728   0.243  0.7055 -0.1626 -0.1857
15762SOL    HW148727   5.725   0.808   0.192  2.7966 -0.2244  0.1174
15762SOL    HW248728   5.801   0.707   0.276  0.0262 -2.0180  0.5861
15763SOL     OW48729   0.063   3.118   5.742  0.1593  0.4006 -0.8528
15763SOL    HW148730   0.084   3.096   5.651 -1.3947 -0.0955 -1.1257
15763SOL    HW248731  -0.004   3.055   5.767  1.9377 -0.7858  1.3389
15764SOL     OW48732   7.571   6.101   4.521 -0.4831 -0.5415  0.1913
15764SOL    HW148733   7.562   6.131   4.430 -1.6265 -0.7880  0.2061
15764SOL    HW248734   7.664   6.113   4.541  0.2099 -2.2857 -1.6476
15765SOL     OW48735   1.164   1.118   5.295 -0.0455 -0.2356  0.2735
15765SOL    HW148736   1.161   1.193   5.354  2.0561  1.3386 -1.4594
15765SOL    HW248737   1.174   1.043   5.354  0.2760  1.0691  1.9916
15766SOL     OW48738   5.292   7.324  12.101 -0.1301  0.4976  0.2076
15766SOL    HW148739   5.281   7.343  12.008 -1.5680 -0.1128  0.2258
15766SOL    HW248740   5.363   7.260  12.103  0.0315  0.6432 -0.4631
15767SOL     OW48741   3.781   6.936   4.023 -1.0406  0.6004  0.2335
15767SOL    HW148742   3.733   6.859   4.055 -0.4179  0.3361  0.5425
15767SOL    HW248743   3.781   6.996   4.097  0.6495 -0.1268  0.8660
15768SOL     OW48744   3.415   5.977   9.509 -0.1111  0.1100  0.0335
15768SOL    HW148745   3.470   6.032   9.564 -1.0537  1.4577 -0.3067
15768SOL    HW248746   3.334   5.967   9.559 -1.2940  2.0180 -1.3520
15769SOL     OW48747   2.549   2.487   9.529  0.3136 -0.4096 -0.3655
15769SOL    HW148748   2.487   2.428   9.487  0.5880 -1.2657  0.3932
15769SOL    HW248749   2.536   2.571   9.486 -2.0048 -0.3199  0.3728
15770SOL     OW48750   1.117   7.236  11.936  0.6079  0.0595  0.0852
15770SOL    HW148751   1.190   7.175  11.926  0.2614 -0.6407  1.5401
15770SOL    HW248752   1.076   7.210  12.018 -1.4692  0.2482 -0.8414
15771SOL     OW48753   0.598   2.228   3.901 -0.1227 -0.1899 -0.0177
15771SOL    HW148754   0.561   2.145   3.872  1.0175 -0.7938  0.1696
15771SOL    HW248755   0.579   2.290   3.831  1.9617 -1.4313 -1.8245
15772SOL     OW48756   1.613   4.371   0.948  0.4125  0.2727  0.1958
15772SOL    HW148757   1.647   4.282   0.939  1.8178  0.7057  1.0004
15772SOL    HW248758   1.554   4.367   1.023  0.2399 -0.0408  0.0456
15773SOL     OW48759   4.087   2.377   0.722  0.7650  0.3163 -0.0291
15773SOL    HW148760   4.113   2.333   0.803  1.8792  1.1032  0.0497
15773SOL    HW248761   4.147   2.451   0.713 -0.6696  1.4672 -0.4981
15774SOL     OW48762   2.495   3.973   1.552  0.2001  0.6373 -0.7304
15774SOL    HW148763   2.418   3.988   1.497  0.0781 -1.1753 -1.1120
15774SOL    HW248764   2.568   4.010   1.502  0.0300 -0.5831 -1.9392
15775SOL     OW48765   4.299   1.570   3.590  0.1249 -0.0369  0.5081
15775SOL    HW148766   4.300   1.573   3.495  1.5906  0.9776  0.5180
15775SOL    HW248767   4.377   1.519   3.614  0.0573  0.1551  1.1715
15776SOL     OW48768   3.407   4.999   1.005 -0.2227  0.3088 -0.5411
15776SOL    HW148769   3.318   4.965   1.012  0.1072 -0.6171 -0.5710
15776SOL    HW248770   3.442   4.957   0.926  0.7853 -0.6923  0.4080
15777SOL     OW48771   5.284   2.544  11.876 -0.2289 -0.7409  0.5956
15777SOL    HW148772   5.320   2.572  11.792 -2.9505  1.8667  0.1190
15777SOL    HW248773   5.351   2.567  11.940 -0.2092  2.3294 -0.3805
15778SOL     OW48774   1.834   7.570   3.647 -0.2778 -0.2532 -0.0264
15778SOL    HW148775   1.792   7.553   3.563 -2.1590  0.2917  0.7515
15778SOL    HW248776   1.808   7.496   3.702  0.3295 -0.2345  0.2888
15779SOL     OW48777   4.302   6.658   1.397  0.3156 -0.3725 -0.1367
15779SOL    HW148778   4.353   6.739   1.392 -0.3967  0.0041 -1.7112
15779SOL    HW248779   4.229   6.680   1.456 -0.7946  0.6999 -1.8174
15780SOL     OW48780   5.200   5.587   6.972  0.0896  0.3981  0.9028
15780SOL    HW148781   5.168   5.633   6.894 -0.7302  0.7562  1.4366
15780SOL    HW248782   5.176   5.644   7.045 -0.1608 -0.4723  1.5114
15781SOL     OW48783   4.667   3.449   3.686  0.5429  0.3201  0.1711
15781SOL    HW148784   4.685   3.419   3.597  3.8494  1.0899  0.4530
15781SOL    HW248785   4.597   3.392   3.717 -0.2214 -0.4025 -2.6770
15782SOL     OW48786   0.543   7.787   1.369 -0.2292 -0.3528  0.0349
15782SOL    HW148787   0.465   7.842   1.373  0.3758  0.4959  0.4444
15782SOL    HW248788   0.523   7.722   1.303 -0.4451  1.2001 -1.4949
15783SOL     OW48789   4.020   5.768   7.662  0.5334  0.2310 -0.5172
15783SOL    HW148790   4.068   5.727   7.589  0.2654 -0.9663 -0.0466
15783SOL    HW248791   4.080   5.835   7.695  1.5460 -0.6684 -0.4768
15784SOL     OW48792   6.052   5.808   9.779 -0.3920 -0.1182 -0.3879
15784SOL    HW148793   6.143   5.808   9.808 -0.1041  1.2149 -1.2264
15784SOL    HW248794   6.001   5.790   9.859  0.5740 -0.6983  0.1176
15785SOL     OW48795   1.001   5.882  11.059  0.0045 -0.0719  0.3166
15785SOL    HW148796   1.067   5.903  11.125 -0.3079 -0.0046  0.6061
15785SOL    HW248797   0.925   5.935  11.082 -0.8013 -1.5147  1.0717
15786SOL     OW48798   0.776   5.174   6.369 -0.1388  0.2753  0.6716
15786SOL    HW148799   0.782   5.097   6.312 -0.8286 -0.1793  1.1947
15786SOL    HW248800   0.794   5.140   6.457  0.5003  0.8914  0.7862
15787SOL     OW48801   4.048   5.250   4.664 -0.1627  0.3827  0.2326
15787SOL    HW148802   3.969   5.302   4.652 -0.7019  0.1342  2.2713
15787SOL    HW248803   4.056   5.241   4.759  1.6974 -0.5584  0.0346
15788SOL     OW48804   6.661   1.020   0.013  0.0427 -0.0372  0.7757
15788SOL    HW148805   6.589   1.016   0.075  0.7907  0.3767  1.6963
15788SOL    HW248806   6.619   1.033  -0.072 -0.9930 -0.5564  1.1888
15789SOL     OW48807   2.970   3.707   2.798 -0.6411  0.6011 -0.3650
15789SOL    HW148808   2.926   3.625   2.820  0.4583 -0.0357 -0.4841
15789SOL    HW248809   3.039   3.716   2.864  0.4712  0.4337 -1.4618
15790SOL     OW48810   0.742   5.183   4.742  0.0140 -0.6527  0.8912
15790SOL    HW148811   0.748   5.089   4.760 -0.9623 -0.9791 -0.2954
15790SOL    HW248812   0.821   5.203   4.691 -0.6400 -1.2494 -0.4058
15791SOL     OW48813   2.350   5.065   6.738 -0.0192  0.1849 -0.8075
15791SOL    HW148814   2.357   4.977   6.772  1.0794 -0.1039 -1.7130
15791SOL    HW248815   2.358   5.122   6.814 -0.0606 -0.4803 -0.3035
15792SOL     OW48816   1.481   6.786   1.176  0.2300 -0.0038 -0.1202
15792SOL    HW148817   1.415   6.726   1.140  0.2582  0.2600 -0.6190
15792SOL    HW248818   1.540   6.729   1.226  0.1851 -0.3782 -0.4848
15793SOL     OW48819   7.164   6.359   4.069 -0.2087  0.0750  0.2137
15793SOL    HW148820   7.082   6.368   4.119 -1.2995 -1.6171 -1.1353
15793SOL    HW248821   7.232   6.363   4.136 -1.4600  0.4505  1.5361
15794SOL     OW48822   1.206   5.466   5.893 -0.2873 -0.2968  0.3618
15794SOL    HW148823   1.235   5.390   5.943  1.3515  0.1871  0.2152
15794SOL    HW248824   1.203   5.436   5.802  0.3935 -0.1872  0.2993
15795SOL     OW48825   3.746   7.770   6.677 -0.2861  0.4969 -0.8625
15795SOL    HW148826   3.695   7.690   6.691  1.0153 -0.0275  1.0895
15795SOL    HW248827   3.775   7.763   6.586 -0.5901 -1.0209 -0.8778
15796SOL     OW48828   1.959   1.113   1.819  0.2700 -0.2035  0.1385
15796SOL    HW148829   1.993   1.128   1.908  0.1250 -0.0451  0.1662
15796SOL    HW248830   2.032   1.071   1.773  0.7449  0.7235  0.0086
15797SOL     OW48831   7.401   2.316   3.964  0.4489  0.0307 -0.3946
15797SOL    HW148832   7.481   2.350   4.004 -0.6785  2.4369 -0.0281
15797SOL    HW248833   7.337   2.313   4.036  0.3903 -2.8360 -0.4435
15798SOL     OW48834   0.149   1.258  12.031  0.7279 -0.5242 -0.0048
15798SOL    HW148835   0.174   1.247  11.939  0.0512 -1.8437 -0.0506
15798SOL    HW248836   0.059   1.288  12.028  0.4645 -1.2681  0.2230
15799SOL     OW48837   6.401   0.808  11.119 -0.0151 -0.1466  0.7687
15799SOL    HW148838   6.344   0.777  11.189  2.2794  2.2076  3.9966
15799SOL    HW248839   6.365   0.894  11.095  0.2357 -0.1545  0.3540
15800SOL     OW48840   7.441   5.230  10.255  0.5587 -0.1225 -0.0070
15800SOL    HW148841   7.508   5.275  10.307 -0.4645  1.2993  0.1234
15800SOL    HW248842   7.440   5.278  10.172  0.2590 -0.6586 -0.3160
15801SOL     OW48843   1.620   0.178   9.405  0.1483 -0.1581  0.5166
15801SOL    HW148844   1.571   0.253   9.438 -0.8420 -0.4705 -0.2165
15801SOL    HW248845   1.553   0.114   9.379  0.7684  0.3187 -2.7481
15802SOL     OW48846   4.454   4.825  11.471 -0.1158 -0.4607  0.0360
15802SOL    HW148847   4.522   4.891  11.484 -0.0386 -0.4342 -0.4941
15802SOL    HW248848   4.426   4.803  11.560 -0.8750  1.0391  0.1950
15803SOL     OW48849   6.595   1.353   8.393  0.1283 -0.5714  0.7230
15803SOL    HW148850   6.524   1.302   8.355 -0.5641  1.6037 -1.1193
15803SOL    HW248851   6.650   1.377   8.318  0.4902  1.2550  1.5260
15804SOL     OW48852   4.454   6.405   1.571  0.1964  0.3272  0.0577
15804SOL    HW148853   4.469   6.315   1.543  0.2507  0.6615 -1.0163
15804SOL    HW248854   4.467   6.457   1.492  0.9942  1.3606  0.8399
15805SOL     OW48855   5.504   1.792   1.275 -0.0238  0.6340 -0.1953
15805SOL    HW148856   5.419   1.804   1.231  0.7407  1.4050 -1.5372
15805SOL    HW248857   5.568   1.823   1.211  1.3733 -1.0104  0.3386
15806SOL     OW48858   0.154   6.859   1.960  0.3917  0.0705 -0.2394
15806SOL    HW148859   0.199   6.862   2.044 -0.7755 -1.5250  0.4946
15806SOL    HW248860   0.157   6.949   1.927  1.7289  0.5143  1.0254
15807SOL     OW48861   2.998   3.155  11.379 -0.4861 -0.5667 -0.1448
15807SOL    HW148862   3.074   3.113  11.418 -0.3813  0.2565  0.5766
15807SOL    HW248863   3.034   3.230  11.331 -0.6469 -1.3728 -1.5993
15808SOL     OW48864   1.887   7.831   8.143  0.8164 -0.0039  0.5836
15808SOL    HW148865   1.816   7.887   8.174 -0.7375 -1.3768 -0.3634
15808SOL    HW248866   1.927   7.796   8.223 -0.3422 -0.1422  1.1133
15809SOL     OW48867   0.671   7.258   5.829  0.8747 -0.5535 -0.1578
15809SOL    HW148868   0.709   7.328   5.883  0.7510 -1.7649  1.5900
15809SOL    HW248869   0.585   7.242   5.867 -0.4803  0.4918 -2.5688
15810SOL     OW48870   5.868   2.883   4.783  0.9120  0.0117  0.6855
15810SOL    HW148871   5.929   2.811   4.770 -0.7969 -1.1879 -1.1680
15810SOL    HW248872   5.782   2.846   4.764 -0.3446  1.8845  2.2666
15811SOL     OW48873   7.779   2.305  10.353  0.0013 -0.0782 -0.1340
15811SOL    HW148874   7.819   2.253  10.283 -0.4469  0.2392 -0.6309
15811SOL    HW248875   7.685   2.291  10.342 -0.1290  0.8730 -0.3098
15812SOL     OW48876   0.842   2.804   1.133  0.0075 -0.3721  0.5797
15812SOL    HW148877   0.928   2.833   1.103 -0.4363  0.3119 -0.0414
15812SOL    HW248878   0.837   2.834   1.224 -0.4291  1.5114 -0.0283
15813SOL     OW48879   7.510   6.921   6.940  0.5519 -0.1658 -0.4372
15813SOL    HW148880   7.443   6.869   6.985  1.5350 -0.9043  0.2292
15813SOL    HW248881   7.461   6.991   6.896 -0.5941 -0.3139  0.5426
15814SOL     OW48882   5.616   4.940   2.081  0.2711 -0.0187  0.6100
15814SOL    HW148883   5.575   4.868   2.130  2.0980 -0.7783  1.1129
15814SOL    HW248884   5.622   5.011   2.144 -0.8450  0.3494  0.3323
15815SOL     OW48885   6.705   7.280  11.651  0.4158  0.6592 -0.4368
15815SOL    HW148886   6.764   7.221  11.698  0.3348  0.0857 -1.0438
15815SOL    HW248887   6.736   7.278  11.561 -0.5623  0.3075 -0.7793
15816SOL     OW48888   0.367   0.408  11.278  0.2831 -0.0826 -0.2555
15816SOL    HW148889   0.307   0.467  11.232  1.0971 -0.1983 -1.4978
15816SOL    HW248890   0.382   0.451  11.362  0.8124  1.4826 -1.1022
15817SOL     OW48891   6.254   0.646   2.010  0.4579  0.9005  0.5117
15817SOL    HW148892   6.297   0.729   1.988  2.4055 -0.5931 -1.8932
15817SOL    HW248893   6.321   0.580   1.994 -2.0955 -1.4551 -1.3457
15818SOL     OW48894   5.633   3.044   3.808  0.1090  0.1252  0.4218
15818SOL    HW148895   5.598   3.047   3.897  0.0023  0.3485  0.3722
15818SOL    HW248896   5.619   3.132   3.773 -1.8642 -0.5456 -0.5998
15819SOL     OW48897   1.480   7.606   3.664 -0.5637 -0.0437  0.0500
15819SOL    HW148898   1.495   7.676   3.727 -0.2327 -1.4675  1.6224
15819SOL    HW248899   1.411   7.640   3.607 -0.6004  1.4525  0.9249
15820SOL     OW48900   4.575   1.165   2.528 -0.2059  0.6764  0.1445
15820SOL    HW148901   4.627   1.134   2.454  0.3136 -0.0600  0.8049
15820SOL    HW248902   4.628   1.145   2.605 -1.3532  0.1135  0.8219
15821SOL     OW48903   2.246   1.916   5.466 -0.0707  0.0023  0.3425
15821SOL    HW148904   2.207   1.976   5.530 -2.6092 -0.8484 -0.2980
15821SOL    HW248905   2.172   1.863   5.435  1.5173 -1.2403 -1.5200
15822SOL     OW48906   7.574   6.760   4.711  0.0365  0.5972  0.7704
15822SOL    HW148907   7.551   6.804   4.629 -0.7062 -0.0675  0.6176
15822SOL    HW248908   7.638   6.693   4.684 -1.3060 -0.6177  0.4779
15823SOL     OW48909   2.958   3.791  10.350 -0.9013  0.0854 -0.1270
15823SOL    HW148910   2.949   3.795  10.255 -1.9495  1.5932  0.0006
15823SOL    HW248911   2.883   3.738  10.379 -0.7280 -0.1591 -0.1274
15824SOL     OW48912   6.507   6.181   5.554  0.3318  0.3827  0.4575
15824SOL    HW148913   6.471   6.196   5.641 -0.4895 -3.0024  0.8390
15824SOL    HW248914   6.595   6.147   5.569 -0.8133 -3.0222  0.2927
15825SOL     OW48915   3.283   5.670   4.613  0.8335 -0.7589  0.4321
15825SOL    HW148916   3.264   5.763   4.607 -2.2847 -1.3599 -0.8393
15825SOL    HW248917   3.301   5.643   4.522 -0.7349 -1.7550  0.3680
15826SOL     OW48918   1.102   4.480  10.507  0.0315 -0.0284 -0.0812
15826SOL    HW148919   1.117   4.574  10.515 -0.9025 -0.0081  1.9958
15826SOL    HW248920   1.009   4.472  10.487 -0.4424 -0.5096  2.0395
15827SOL     OW48921   7.771   0.849   2.914  0.4783  0.4506 -0.0312
15827SOL    HW148922   7.736   0.763   2.934 -1.8958  1.4596  0.5044
15827SOL    HW248923   7.764   0.856   2.819 -0.9925  0.6517  0.0598
15828SOL     OW48924   0.110   3.055   7.078  0.2722  0.4118  0.2192
15828SOL    HW148925   0.074   3.128   7.027 -0.3816  0.7141  1.0831
15828SOL    HW248926   0.033   3.005   7.105  0.7170 -0.6290 -0.3749
15829SOL     OW48927   6.785   4.861   2.808 -0.0302  0.0000  0.0414
15829SOL    HW148928   6.725   4.804   2.857  0.9066 -1.9617 -0.9980
15829SOL    HW248929   6.836   4.905   2.875 -0.3074 -0.9127  0.8726
15830SOL     OW48930   7.300   0.824   7.144  0.4258  0.3697 -0.2987
15830SOL    HW148931   7.342   0.744   7.174  1.0113  0.4096 -0.9793
15830SOL    HW248932   7.222   0.795   7.096  0.7521  0.1907 -0.7263
15831SOL     OW48933   4.896   0.939   2.533 -0.2550  0.4142 -0.2321
15831SOL    HW148934   4.939   0.940   2.448  0.4007  1.5604  0.0841
15831SOL    HW248935   4.967   0.925   2.595 -0.8738 -1.5736  0.0851
15832SOL     OW48936   0.519   7.101   1.366  0.1251  0.5916  0.4423
15832SOL    HW148937   0.530   7.182   1.415 -0.9234  0.0386  1.6409
15832SOL    HW248938   0.500   7.035   1.432 -0.5196 -0.3479 -0.6456
15833SOL     OW48939   0.033   2.048  12.336 -0.1195  0.2887  0.2103
15833SOL    HW148940   0.112   2.100  12.327 -0.6663  1.0129 -0.5745
15833SOL    HW248941   0.037   2.013  12.425  1.9373 -1.1602 -0.3864
15834SOL     OW48942   5.983   3.397   3.153  0.0057  0.0507  0.3092
15834SOL    HW148943   5.918   3.455   3.193 -0.4911 -0.7477  0.6902
15834SOL    HW248944   6.005   3.439   3.070 -0.1845  0.8896  0.6707
15835SOL     OW48945   4.729   6.187   0.345 -0.3762  0.1305 -0.0776
15835SOL    HW148946   4.643   6.200   0.383  0.1863 -0.4540  1.4461
15835SOL    HW248947   4.721   6.222   0.256 -1.7804  1.3359  0.4860
15836SOL     OW48948   4.912   3.702  11.631  0.0904 -0.4978  0.5507
15836SOL    HW148949   4.902   3.716  11.536 -1.6746 -1.6144  0.5268
15836SOL    HW248950   4.936   3.610  11.639  0.0382 -0.4557  1.1932
15837SOL     OW48951   1.302   4.875   9.148  0.6924  0.0880 -0.1496
15837SOL    HW148952   1.266   4.892   9.235  1.8506 -0.8048  0.5302
15837SOL    HW248953   1.228   4.841   9.097  0.2183 -0.2578  0.7558
15838SOL     OW48954   5.048   7.213   1.019  0.2445 -0.2399 -0.4131
15838SOL    HW148955   5.056   7.236   1.111  1.5250 -0.2227 -0.5214
15838SOL    HW248956   4.966   7.255   0.992 -0.0091 -0.0242  0.6429
15839SOL     OW48957   6.139   6.701   0.194  0.2631 -0.1103 -0.5196
15839SOL    HW148958   6.197   6.759   0.244  2.6886 -2.3583 -0.5196
15839SOL    HW248959   6.059   6.695   0.247  1.1922  0.7188  1.0420
15840SOL     OW48960   0.642   3.620   7.075  0.5982 -0.4797 -0.3012
15840SOL    HW148961   0.569   3.621   7.013  1.2049 -0.7060 -1.0261
15840SOL    HW248962   0.688   3.702   7.059  0.8829 -0.6399 -0.3017
15841SOL     OW48963   2.019   2.034   8.118 -0.3951  0.2911 -0.2387
15841SOL    HW148964   1.931   2.033   8.154 -0.5383  1.9592 -0.4404
15841SOL    HW248965   2.069   2.089   8.178  0.0211  0.9194 -1.1333
15842SOL     OW48966   5.750   1.697  10.969 -0.1204  0.3603  0.0910
15842SOL    HW148967   5.829   1.736  10.933 -0.4747  2.0714  1.0291
15842SOL    HW248968   5.756   1.604  10.947  3.0675  0.0506  1.7814
15843SOL     OW48969   7.649   1.013   7.852 -0.4638 -0.4611 -0.1565
15843SOL    HW148970   7.644   0.922   7.823 -4.2515 -0.5689  0.3253
15843SOL    HW248971   7.683   1.009   7.941  1.2025 -1.1432 -0.7833
15844SOL     OW48972   2.407   4.510   9.582 -0.1511 -0.5716  0.0558
15844SOL    HW148973   2.488   4.461   9.571 -0.7085 -1.6104  0.4041
15844SOL    HW248974   2.392   4.511   9.677 -0.3567 -0.0771  0.0192
15845SOL     OW48975   6.785   2.794   3.242  0.3719  0.0054 -0.0579
15845SOL    HW148976   6.833   2.800   3.325  1.6277 -0.7776 -0.7060
15845SOL    HW248977   6.808   2.708   3.207  0.5927  0.6862 -1.6719
15846SOL     OW48978   6.055   5.165  11.158  0.0722  0.6108 -0.1199
15846SOL    HW148979   6.099   5.232  11.106  0.4305  0.2573 -0.2736
15846SOL    HW248980   6.030   5.209  11.239  3.2101  0.1298  1.2206
15847SOL     OW48981   4.228   5.393   7.118 -0.1088 -0.0504 -0.0420
15847SOL    HW148982   4.270   5.313   7.148 -1.2589 -1.5521 -2.1470
15847SOL    HW248983   4.301   5.447   7.086  0.6902 -0.1599  1.5073
15848SOL     OW48984   5.598   5.041  11.505  0.3224 -0.0371 -0.3927
15848SOL    HW148985   5.551   5.058  11.587 -1.4885 -1.0345 -1.1649
15848SOL    HW248986   5.661   4.973  11.528  0.4573  0.3238  0.3583
15849SOL     OW48987   3.686   5.570  11.254 -0.5023 -0.0230 -0.0439
15849SOL    HW148988   3.654   5.623  11.181 -0.9509 -3.1899 -2.3668
15849SOL    HW248989   3.608   5.531  11.292 -0.0393 -0.8215  0.1039
15850SOL     OW48990   3.844   3.346  12.332 -0.2645 -0.0260  0.7116
15850SOL    HW148991   3.750   3.339  12.345 -0.2500 -0.0059  0.8263
15850SOL    HW248992   3.882   3.285  12.396 -0.2312 -0.6577  0.0996
15851SOL     OW48993   2.520   3.391   5.551  0.1623 -0.2638  0.2034
15851SOL    HW148994   2.515   3.469   5.496  0.6640  0.6874  1.4612
15851SOL    HW248995   2.603   3.350   5.527  0.6156  0.4145  0.5801
15852SOL     OW48996   6.214   2.099   2.268  0.2147 -0.2555 -0.0316
15852SOL    HW148997   6.148   2.079   2.202 -0.0101  2.1249 -0.5934
15852SOL    HW248998   6.177   2.172   2.318  1.8244  0.1916  0.5576
15853SOL     OW48999   5.662   4.501  12.355  0.2700  0.2714 -0.0268
15853SOL    HW149000   5.713   4.433  12.311  1.0168  1.6209 -1.3518
15853SOL    HW249001   5.726   4.547  12.410  0.5549  2.0106 -1.7395
15854SOL     OW49002   1.548   5.703   1.189 -0.5632 -0.4225  0.0879
15854SOL    HW149003   1.454   5.702   1.169 -0.4356 -0.0049 -0.5435
15854SOL    HW249004   1.572   5.795   1.189 -0.5362 -0.3891  2.1522
15855SOL     OW49005   3.327   3.742   3.767  0.6826  0.1668 -0.3976
15855SOL    HW149006   3.257   3.690   3.807  0.5075  0.2244 -0.6275
15855SOL    HW249007   3.288   3.827   3.751  1.2939  0.7475  1.0159
15856SOL     OW49008   4.123   2.485   5.472  0.1079 -0.0126 -0.0464
15856SOL    HW149009   4.096   2.399   5.505 -1.3739 -0.0225 -1.1912
15856SOL    HW249010   4.161   2.529   5.548  0.2156 -1.4127  0.7354
15857SOL     OW49011   5.219   4.312   0.237  0.5362 -0.1125  0.2998
15857SOL    HW149012   5.164   4.270   0.303  2.6069 -0.5867  1.8305
15857SOL    HW249013   5.278   4.242   0.207  0.6481  0.4866 -0.9566
15858SOL     OW49014   1.785   7.048   1.510  0.2548 -0.0812 -0.2559
15858SOL    HW149015   1.820   7.102   1.581  1.2200 -0.0967 -0.7113
15858SOL    HW249016   1.825   7.082   1.431  1.6009 -2.0062 -0.4660
15859SOL     OW49017   5.390   4.928  12.070 -0.0987 -0.2201 -0.0082
15859SOL    HW149018   5.401   4.935  12.165  2.0971 -2.0766 -0.0573
15859SOL    HW249019   5.314   4.983  12.051 -0.1567  0.7859  2.7135
15860SOL     OW49020   2.888   7.014   7.053  0.7989  0.5406 -0.6188
15860SOL    HW149021   2.916   7.102   7.029 -0.2318  0.6111 -1.6853
15860SOL    HW249022   2.835   7.025   7.132  1.6614  0.7119 -0.0552
15861SOL     OW49023   0.008   6.250  12.143  0.1701  0.0144  0.0368
15861SOL    HW149024  -0.068   6.309  12.147 -0.9473 -1.0830 -2.7512
15861SOL    HW249025   0.083   6.307  12.160 -1.1838  1.0534  3.4726
15862SOL     OW49026   2.863   0.272   9.757 -0.1465  0.7140  0.1931
15862SOL    HW149027   2.864   0.281   9.662  0.7124  0.9122  0.2136
15862SOL    HW249028   2.874   0.361   9.790  2.0516  0.4101  0.4414
15863SOL     OW49029   6.467   1.151   4.076  0.3461 -0.1724 -0.1894
15863SOL    HW149030   6.561   1.166   4.086  0.2257  0.5693 -0.1367
15863SOL    HW249031   6.458   1.112   3.989  0.4914  1.8228 -1.1503
15864SOL     OW49032   6.336   6.512   5.797 -0.0437  0.0516  0.7138
15864SOL    HW149033   6.257   6.529   5.848 -1.1627 -1.0441 -0.5931
15864SOL    HW249034   6.309   6.521   5.706  0.9352 -1.8512  0.1833
15865SOL     OW49035   0.299   0.014   6.801  0.1876  0.1376  0.4814
15865SOL    HW149036   0.298   0.086   6.863  0.4030  1.0061 -0.4997
15865SOL    HW249037   0.208   0.000   6.777  0.1771  0.3079  0.4230
15866SOL     OW49038   6.811   6.050   7.521 -0.2734  0.4460 -0.0001
15866SOL    HW149039   6.776   5.967   7.555 -0.0013  0.0974 -0.5629
15866SOL    HW249040   6.837   6.030   7.431  0.9720  0.8022  0.2552
15867SOL     OW49041   0.100   7.857  12.340  0.8048  0.4464 -0.2592
15867SOL    HW149042   0.176   7.878  12.394  1.2239  1.1481 -1.0926
15867SOL    HW249043   0.133   7.861  12.250 -0.1870  0.6072 -0.6287
15868SOL     OW49044   7.093   1.823  11.412 -0.5935  0.4494 -0.0654
15868SOL    HW149045   7.044   1.883  11.467  0.0654  1.4524 -0.5349
15868SOL    HW249046   7.078   1.854  11.323  0.7563  0.6966 -0.2269
15869SOL     OW49047   1.236   2.930   4.182  0.5671 -0.4112  0.4973
15869SOL    HW149048   1.242   2.957   4.274  0.9654  1.2949  0.0028
15869SOL    HW249049   1.269   3.005   4.133 -2.0549 -0.2163 -1.1755
15870SOL     OW49050   6.050   1.555  11.738 -0.1505  0.0899 -0.0164
15870SOL    HW149051   6.075   1.579  11.827 -0.5672 -0.5614  0.2867
15870SOL    HW249052   6.132   1.555  11.689 -0.0031  1.1107  0.1966
15871SOL     OW49053   5.642   6.859   3.467  0.3801 -0.0055 -0.0985
15871SOL    HW149054   5.720   6.828   3.422  0.2177 -0.0526 -0.3507
15871SOL    HW249055   5.578   6.788   3.456  0.3583 -0.0453  0.2588
15872SOL     OW49056   0.486   7.692   0.369  0.0721 -0.2285  0.4146
15872SOL    HW149057   0.461   7.784   0.359  1.8371  0.3172  0.7115
15872SOL    HW249058   0.425   7.657   0.435 -2.4816 -0.1028 -1.6923
15873SOL     OW49059   0.738   7.584   8.787  0.3405 -0.6669 -0.0300
15873SOL    HW149060   0.821   7.582   8.834  0.7358 -0.5791 -0.7054
15873SOL    HW249061   0.676   7.540   8.845  0.8599 -0.7406  0.4756
15874SOL     OW49062   0.387   7.122   6.915 -0.7778  0.4584  0.7954
15874SOL    HW149063   0.469   7.115   6.964 -0.2160  0.9981 -0.0417
15874SOL    HW249064   0.321   7.082   6.972 -0.3209  1.8522  2.3903
15875SOL     OW49065   1.475   5.477   0.850  0.1521 -0.1400 -0.2340
15875SOL    HW149066   1.571   5.475   0.858  0.1876 -0.0315 -0.6124
15875SOL    HW249067   1.450   5.385   0.846  0.2746 -0.1631 -0.5084
15876SOL     OW49068   0.158   5.992   1.134  0.4558 -0.3393 -0.0522
15876SOL    HW149069   0.210   5.973   1.213  0.4299  2.4211  0.7172
15876SOL    HW249070   0.219   5.978   1.062  1.3653 -0.0565  0.6420
15877SOL     OW49071   2.796   2.073   0.579 -0.0780 -0.0593 -0.0776
15877SOL    HW149072   2.779   2.009   0.648  0.4481 -0.8059 -0.6248
15877SOL    HW249073   2.734   2.143   0.596 -1.5971 -1.3141 -0.2408
15878SOL     OW49074   1.756   0.467   2.927 -0.4021 -0.4730 -0.5201
15878SOL    HW149075   1.738   0.539   2.868  2.5663  0.5994 -0.3089
15878SOL    HW249076   1.845   0.438   2.904  0.0796 -1.3371  2.0485
15879SOL     OW49077   1.572   0.086  10.187  0.3639 -0.6374 -0.3229
15879SOL    HW149078   1.656   0.120  10.219 -0.5478  0.5126  0.9617
15879SOL    HW249079   1.586   0.074  10.093  0.8247  3.3919 -0.9673
15880SOL     OW49080   7.228   7.526   5.081 -0.0806 -0.3292 -0.4645
15880SOL    HW149081   7.266   7.598   5.030  2.2454 -0.3265  1.0967
15880SOL    HW249082   7.158   7.567   5.132  1.3361  0.9720  0.5514
15881SOL     OW49083   1.490   7.711   7.100 -0.1774 -0.3732  0.2220
15881SOL    HW149084   1.564   7.690   7.044  0.6647  1.6302  0.4781
15881SOL    HW249085   1.508   7.666   7.183  0.2160 -0.7542 -0.0689
15882SOL     OW49086   7.343   0.251   8.313 -0.0412 -0.2362 -0.0367
15882SOL    HW149087   7.374   0.302   8.238 -0.3545  0.4224  0.2690
15882SOL    HW249088   7.418   0.197   8.338  1.3466  2.1618  1.4100
15883SOL     OW49089   7.202   6.712   0.872  0.2945  0.4929 -0.3536
15883SOL    HW149090   7.183   6.660   0.951  1.2126 -4.0883 -2.7963
15883SOL    HW249091   7.120   6.758   0.855 -1.3027 -1.5365  1.1784
15884SOL     OW49092   1.952   5.205   2.249 -0.3486 -0.2261  0.8278
15884SOL    HW149093   2.037   5.221   2.289  0.3617 -0.9338 -0.3347
15884SOL    HW249094   1.892   5.194   2.323  0.8673 -1.2739  1.6899
15885SOL     OW49095   0.759   0.209   0.120  0.3101 -0.1693  0.1203
15885SOL    HW149096   0.703   0.267   0.173 -0.7379 -1.0174 -0.0355
15885SOL    HW249097   0.729   0.121   0.141  1.4144 -0.6318 -0.1854
15886SOL     OW49098   3.358   1.113   4.656  0.2218 -0.0296 -0.2461
15886SOL    HW149099   3.342   1.183   4.593  0.6657  1.4334  1.2169
15886SOL    HW249100   3.325   1.147   4.739  0.3667 -1.6004  0.4880
15887SOL     OW49101   6.551   7.415   7.167 -0.3989 -0.3822 -0.1536
15887SOL    HW149102   6.503   7.485   7.124 -0.7625 -1.5227 -1.6988
15887SOL    HW249103   6.518   7.334   7.126  0.8544 -1.3734  0.6999
15888SOL     OW49104   5.394   5.952   3.270 -0.1465 -0.2500 -0.0344
15888SOL    HW149105   5.417   5.922   3.182  0.5696  0.4943 -0.1210
15888SOL    HW249106   5.319   6.010   3.257 -0.4801 -0.6853 -0.0665
15889SOL     OW49107   6.701   3.607   3.097 -0.6883  0.4111 -0.1791
15889SOL    HW149108   6.613   3.591   3.064 -0.1246 -0.7971 -1.1581
15889SOL    HW249109   6.711   3.703   3.096 -2.4463  0.6658  1.2483
15890SOL     OW49110   0.713   1.448  10.446  0.7104  0.1036 -0.1466
15890SOL    HW149111   0.702   1.529  10.396  1.3589  1.0473  1.1711
15890SOL    HW249112   0.805   1.427  10.437  0.8275  0.2671  0.6052
15891SOL     OW49113   5.293   5.312   6.340  0.0790  0.1081  0.3233
15891SOL    HW149114   5.273   5.305   6.247 -1.7387 -1.6559  0.7560
15891SOL    HW249115   5.381   5.275   6.348  0.3810  0.5568 -0.7154
15892SOL     OW49116   3.592   2.729  10.329 -0.1235  0.1964  0.0805
15892SOL    HW149117   3.530   2.758  10.396  0.6737  0.9233  0.5185
15892SOL    HW249118   3.670   2.701  10.378  1.2969  2.7108 -0.5502
15893SOL     OW49119   4.638   2.234   0.255 -0.1718  0.6307  0.6682
15893SOL    HW149120   4.558   2.282   0.275 -0.6416 -0.4438  1.5152
15893SOL    HW249121   4.707   2.284   0.298 -0.6635  0.5371  1.6209
15894SOL     OW49122   3.907   6.855   8.125  0.1560  0.2497 -0.0152
15894SOL    HW149123   3.883   6.918   8.194  2.7659  0.6907  0.5791
15894SOL    HW249124   3.848   6.876   8.052 -1.3023  1.1085  1.3459
15895SOL     OW49125   7.283   2.383   4.859 -0.5879 -0.7327  0.4438
15895SOL    HW149126   7.377   2.389   4.878 -0.6518 -0.0676  0.5650
15895SOL    HW249127   7.277   2.398   4.765 -0.5783 -0.7742  0.4360
15896SOL     OW49128   2.495   6.965   0.412  0.4966  0.7996 -0.0564
15896SOL    HW149129   2.522   6.877   0.387 -1.0596 -0.5372  2.6018
15896SOL    HW249130   2.552   7.023   0.361  0.5195 -1.6468 -3.0795
15897SOL     OW49131   7.146   2.282   4.149 -0.3242 -0.2568 -0.1216
15897SOL    HW149132   7.169   2.194   4.181 -0.1906 -1.2506 -2.7162
15897SOL    HW249133   7.055   2.275   4.123  0.2246 -0.2957 -2.2225
15898SOL     OW49134   3.785   7.210  11.464  0.0468 -0.0381 -0.8108
15898SOL    HW149135   3.782   7.268  11.540  0.9111 -1.2586  0.2022
15898SOL    HW249136   3.751   7.126  11.496 -0.3762 -0.3438 -2.0046
15899SOL     OW49137   4.771   6.531   5.804  0.0076 -0.5274  0.0140
15899SOL    HW149138   4.861   6.533   5.771  0.2866  0.1499  0.7570
15899SOL    HW249139   4.727   6.464   5.752  0.8710 -0.6757 -0.5454
15900SOL     OW49140   5.967   3.503   4.846 -0.0184  0.0675 -0.2182
15900SOL    HW149141   5.929   3.591   4.838  1.2324  0.7625  1.0837
15900SOL    HW249142   5.987   3.478   4.755  0.1132  1.3656 -0.5751
15901SOL     OW49143   7.679   5.473   8.108  0.0141 -0.0255 -0.1912
15901SOL    HW149144   7.685   5.515   8.022 -0.3997  1.3607  0.4157
15901SOL    HW249145   7.713   5.540   8.169  2.1765 -1.6821  0.5414
15902SOL     OW49146   4.680   0.087   8.108 -0.3910  0.4598  0.2245
15902SOL    HW149147   4.669   0.161   8.048 -0.8142  1.3715  1.3861
15902SOL    HW249148   4.591   0.059   8.129 -0.2354 -0.4395 -0.2474
15903SOL     OW49149   5.168   4.174   3.593 -0.5074  0.3937  0.0840
15903SOL    HW149150   5.146   4.105   3.531 -1.4395  0.0924  0.7389
15903SOL    HW249151   5.163   4.132   3.679  0.2550  0.9386  0.4116
15904SOL     OW49152   1.884   2.265   9.828 -0.4188 -0.0474 -0.1051
15904SOL    HW149153   1.863   2.224   9.912 -0.5029 -0.2585 -0.2261
15904SOL    HW249154   1.950   2.207   9.790 -0.6381 -0.1450 -0.3385
15905SOL     OW49155   6.599   5.135   6.187  0.4690  0.6889  1.2939
15905SOL    HW149156   6.606   5.227   6.210  0.9024  1.0399 -0.1616
15905SOL    HW249157   6.525   5.131   6.126  0.4639  0.0696  1.3317
15906SOL     OW49158   1.003   4.428   9.365 -0.3040 -0.1674 -0.5563
15906SOL    HW149159   1.020   4.512   9.407  1.1253 -1.0035  0.6253
15906SOL    HW249160   1.003   4.364   9.437  0.0237 -1.3637 -1.5686
15907SOL     OW49161   7.605   4.400   0.980 -0.2021  0.3914  0.4881
15907SOL    HW149162   7.547   4.331   0.947  1.1324  0.3498 -2.0595
15907SOL    HW249163   7.552   4.447   1.044 -2.4499 -0.7038 -0.4447
15908SOL     OW49164   7.292   1.295   8.562 -0.7056  0.1578  0.2658
15908SOL    HW149165   7.361   1.309   8.498 -0.5778  1.4784  0.6614
15908SOL    HW249166   7.213   1.283   8.509 -0.4728  0.4706 -0.1614
15909SOL     OW49167   6.850   4.019   4.074 -0.1217  0.6265 -0.5003
15909SOL    HW149168   6.868   3.934   4.113 -0.3349  0.5177 -0.6371
15909SOL    HW249169   6.819   4.073   4.146  0.3844  0.7031 -0.3365
15910SOL     OW49170   7.596   3.548   9.023 -0.4115 -0.6389 -0.3670
15910SOL    HW149171   7.559   3.518   9.106 -0.3320 -0.8837 -0.4195
15910SOL    HW249172   7.529   3.526   8.958 -0.5390 -0.3097 -0.3470
15911SOL     OW49173   0.155   5.555   4.243 -0.8463 -0.1226  0.0846
15911SOL    HW149174   0.119   5.487   4.301 -1.6464 -0.0665 -0.3403
15911SOL    HW249175   0.134   5.525   4.155 -2.5479  1.3786 -0.0852
15912SOL     OW49176   5.295   0.289   5.971 -0.0365  0.0730  0.2896
15912SOL    HW149177   5.347   0.320   6.046 -0.5317 -0.4051  0.8416
15912SOL    HW249178   5.333   0.204   5.949  1.1844  0.9267 -1.0897
15913SOL     OW49179   7.613   3.654   6.053 -0.4694  0.0917 -0.0822
15913SOL    HW149180   7.692   3.708   6.058  0.7630 -1.5540 -0.9086
15913SOL    HW249181   7.617   3.600   6.132 -0.1349 -0.8012 -0.6998
15914SOL     OW49182   7.520   0.297   9.025  0.3842 -0.3449  0.0114
15914SOL    HW149183   7.436   0.256   9.046  0.0036  0.2542 -0.3093
15914SOL    HW249184   7.522   0.301   8.929  0.6628 -0.1266  0.0225
15915SOL     OW49185   6.957   3.742   0.408 -0.1132 -0.5796  0.1996
15915SOL    HW149186   6.978   3.829   0.374 -0.8565  0.2201  1.6931
15915SOL    HW249187   7.035   3.690   0.391  1.1076  0.9198  1.0006
15916SOL     OW49188   6.394   0.819   1.350  0.4753 -0.0058  0.1488
15916SOL    HW149189   6.309   0.839   1.312 -0.1872  0.5367  1.8335
15916SOL    HW249190   6.443   0.777   1.279 -0.9815  0.1984 -1.0150
15917SOL     OW49191   1.269   7.774   7.772  0.6439  0.5944 -0.3826
15917SOL    HW149192   1.352   7.730   7.788 -0.0786 -0.9873 -0.8016
15917SOL    HW249193   1.214   7.750   7.847  0.7076  2.0631  0.1642
15918SOL     OW49194   1.619   3.229   8.524 -0.1695  0.7291 -0.4394
15918SOL    HW149195   1.648   3.283   8.450  2.8259  2.2542  1.6482
15918SOL    HW249196   1.660   3.143   8.508 -0.1177  0.8349 -0.8955
15919SOL     OW49197   5.170   7.365   9.290  0.2489 -0.5003  0.1107
15919SOL    HW149198   5.075   7.375   9.300  0.2146 -2.2433  2.0729
15919SOL    HW249199   5.180   7.292   9.228  0.1517 -3.1714  3.0274
15920SOL     OW49200   5.638   6.273   7.996 -0.2975  0.2741  0.1704
15920SOL    HW149201   5.604   6.314   8.076  1.2227  2.4017 -0.1785
15920SOL    HW249202   5.631   6.342   7.929 -0.0322 -0.9223 -1.1409
15921SOL     OW49203   7.329   4.296   2.729  1.2644  0.3720 -0.5544
15921SOL    HW149204   7.421   4.321   2.723  1.2658  0.0570 -2.3769
15921SOL    HW249205   7.283   4.357   2.671  0.1864  0.9972  0.8771
15922SOL     OW49206   2.709   7.250   4.092 -0.5982  0.3982 -0.3351
15922SOL    HW149207   2.774   7.257   4.023  2.5402 -1.1525  2.1530
15922SOL    HW249208   2.662   7.169   4.073  0.3712 -0.1162 -0.6043
15923SOL     OW49209   2.370   7.372  10.203 -0.2145 -0.3682  0.0675
15923SOL    HW149210   2.375   7.391  10.110  0.4376 -0.3844  0.0918
15923SOL    HW249211   2.461   7.369  10.232 -0.4253  0.0371  0.7905
15924SOL     OW49212   0.614   0.825   6.674  0.1809 -0.3571  0.1442
15924SOL    HW149213   0.601   0.919   6.666  1.2307 -0.1929  0.2013
15924SOL    HW249214   0.535   0.793   6.717 -0.9462  0.2395 -1.3920
15925SOL     OW49215   6.754   4.419   8.400 -0.1470  0.3738 -0.1459
15925SOL    HW149216   6.723   4.362   8.330 -0.1379 -0.6891  0.6826
15925SOL    HW249217   6.687   4.486   8.409 -0.6911 -0.1248 -0.4288
15926SOL     OW49218   0.472   2.212   3.459 -0.5456 -0.7913  0.1181
15926SOL    HW149219   0.549   2.158   3.477  0.4175  0.6506  0.5192
15926SOL    HW249220   0.472   2.278   3.528 -0.6205  0.8167 -1.3317
15927SOL     OW49221   5.377   0.434   2.297  0.8930  0.7162 -0.6678
15927SOL    HW149222   5.291   0.397   2.276  0.8767  0.4993 -0.2444
15927SOL    HW249223   5.408   0.381   2.371  1.1868  1.0929 -0.5163
15928SOL     OW49224   4.253   3.578  11.307 -0.1787  0.3832  0.1121
15928SOL    HW149225   4.273   3.576  11.400 -0.3925  0.8665  0.1691
15928SOL    HW249226   4.159   3.558  11.302  0.1745 -1.4140 -0.1238
15929SOL     OW49227   4.157   5.635   5.604  0.0527  0.4148  0.0338
15929SOL    HW149228   4.136   5.549   5.569 -0.9447  0.2944  0.8626
15929SOL    HW249229   4.238   5.660   5.561 -0.8352  0.0634 -1.9691
15930SOL     OW49230   2.311   5.419   3.667 -0.2374 -0.5780  0.6938
15930SOL    HW149231   2.405   5.429   3.653 -0.0742 -0.9359  1.4708
15930SOL    HW249232   2.271   5.481   3.606  0.5275  0.0672  0.8341
15931SOL     OW49233   4.448   4.094   1.538  0.1315  0.2489  0.0770
15931SOL    HW149234   4.400   4.174   1.560  0.7211  0.4799  0.5551
15931SOL    HW249235   4.513   4.085   1.608  1.4287  0.4710 -1.0508
15932SOL     OW49236   6.776   0.206   5.727  0.1750 -0.1706  1.0956
15932SOL    HW149237   6.863   0.190   5.692  0.6908  0.1447  2.1973
15932SOL    HW249238   6.788   0.273   5.794 -0.9343 -0.0177  1.1697
15933SOL     OW49239   0.389   3.278   8.507 -0.2740 -0.4378 -0.1607
15933SOL    HW149240   0.374   3.372   8.512  0.5512 -0.2453 -1.1085
15933SOL    HW249241   0.338   3.249   8.431  1.5817 -0.2816 -1.5230
15934SOL     OW49242   3.171   5.240   7.989 -0.4547  0.0946  0.2114
15934SOL    HW149243   3.199   5.169   8.046 -2.2860  0.9500  2.3272
15934SOL    HW249244   3.199   5.320   8.033 -1.2364  0.7752 -0.4716
15935SOL     OW49245   0.377   0.073   5.345 -0.3041  0.8908 -0.3240
15935SOL    HW149246   0.284   0.071   5.368 -0.0258 -2.6810  1.1595
15935SOL    HW249247   0.379   0.089   5.250 -2.5491 -0.5625 -0.6726
15936SOL     OW49248   7.647   3.143   2.526  0.0693 -0.2196 -0.1084
15936SOL    HW149249   7.625   3.145   2.620 -0.0897 -0.7607 -0.1305
15936SOL    HW249250   7.564   3.159   2.482  0.1021 -0.1963 -0.1617
15937SOL     OW49251   7.541   2.198   8.403 -0.2269 -0.9090  0.2130
15937SOL    HW149252   7.513   2.284   8.433 -1.8390 -1.3285  0.0367
15937SOL    HW249253   7.522   2.197   8.309  1.6197 -0.7972 -0.2075
15938SOL     OW49254   2.061   2.799   2.562 -0.1633 -0.4276 -0.5309
15938SOL    HW149255   2.139   2.765   2.607 -0.9550 -2.1465 -0.3895
15938SOL    HW249256   1.991   2.788   2.626 -0.4226  1.8730 -0.3463
15939SOL     OW49257   1.696   3.900  10.693  0.5430 -0.4518  0.2868
15939SOL    HW149258   1.689   3.995  10.698 -1.5119 -0.5520  0.5140
15939SOL    HW249259   1.605   3.870  10.687  1.1454 -2.3985  0.0712
15940SOL     OW49260   7.061   5.818   1.381 -0.0052  0.4152 -0.1547
15940SOL    HW149261   7.004   5.743   1.397 -0.5715  0.6395 -1.0257
15940SOL    HW249262   7.141   5.799   1.430  0.0862 -1.0262 -0.8043
15941SOL     OW49263   7.621   2.433   5.847  0.2618 -0.0716  0.5821
15941SOL    HW149264   7.693   2.384   5.806  1.5118 -0.7173  3.3277
15941SOL    HW249265   7.555   2.367   5.866  0.8360 -0.2882  1.9360
15942SOL     OW49266   3.508   2.825   4.626 -0.9893  0.2433 -0.0164
15942SOL    HW149267   3.433   2.801   4.680 -1.0927  1.3235  0.3310
15942SOL    HW249268   3.473   2.887   4.562 -0.3163  1.0640  0.3957
15943SOL     OW49269   1.856   6.750   5.103 -0.4481 -0.3275 -0.2702
15943SOL    HW149270   1.904   6.780   5.026 -0.9925  3.2484  0.6216
15943SOL    HW249271   1.923   6.731   5.169 -0.1098 -0.6008 -0.6916
15944SOL     OW49272   5.950   3.051   0.277 -0.2250  0.1820 -0.0106
15944SOL    HW149273   5.943   2.957   0.260 -0.9809  0.4665 -1.4073
15944SOL    HW249274   6.012   3.057   0.350  0.1881 -1.3695 -0.1888
15945SOL     OW49275   5.380   5.651   9.858  0.1227  0.3653 -0.0171
15945SOL    HW149276   5.457   5.688   9.814  0.2053 -0.6574 -0.7763
15945SOL    HW249277   5.306   5.699   9.821  0.2184 -0.2729 -1.0502
15946SOL     OW49278   1.089   7.805   9.320 -0.1321  0.5668 -0.5389
15946SOL    HW149279   1.077   7.894   9.285 -0.7139  1.0453  0.7939
15946SOL    HW249280   1.001   7.777   9.345  0.3867  0.9352  2.0285
15947SOL     OW49281   6.881   1.668   5.639 -0.4783  0.1517  0.4487
15947SOL    HW149282   6.853   1.686   5.728 -0.9371 -1.4000  0.6549
15947SOL    HW249283   6.856   1.746   5.589 -0.7882  0.7669  1.5455
15948SOL     OW49284   6.400   1.733   4.191  0.8012 -0.0430  0.4641
15948SOL    HW149285   6.444   1.681   4.125 -0.1802  0.1196 -0.3480
15948SOL    HW249286   6.433   1.822   4.180 -0.1695  0.2115 -0.5803
15949SOL     OW49287   5.205   0.684   7.665  0.1051 -0.3043 -0.2377
15949SOL    HW149288   5.234   0.765   7.622  0.4527 -0.4532 -0.2924
15949SOL    HW249289   5.157   0.637   7.598  1.5667 -1.0359 -0.8248
15950SOL     OW49290   5.097   3.697   2.838  0.1260  0.1388  0.6160
15950SOL    HW149291   5.107   3.692   2.743  0.6118  0.3714  0.6541
15950SOL    HW249292   5.037   3.771   2.852 -0.2865 -0.1672  0.4709
15951SOL     OW49293   1.883   6.619   9.866  0.6482 -0.4437  0.1147
15951SOL    HW149294   1.920   6.545   9.914 -0.1389 -1.1337 -0.3190
15951SOL    HW249295   1.957   6.653   9.815  1.4341  0.1448  1.5739
15952SOL     OW49296   6.287   7.542  11.443  0.3225 -0.2748  0.2063
15952SOL    HW149297   6.255   7.571  11.357  0.4040 -1.5025 -0.2587
15952SOL    HW249298   6.382   7.551  11.437  0.4417 -1.7216 -0.3740
15953SOL     OW49299   1.940   1.467   4.492 -1.0161 -0.0170 -0.2287
15953SOL    HW149300   1.913   1.475   4.583 -1.8753 -1.4096 -0.3225
15953SOL    HW249301   1.865   1.499   4.442 -0.8802 -0.0338 -0.4446
15954SOL     OW49302   7.108   1.467   0.524  0.3103 -0.2621  0.2511
15954SOL    HW149303   7.161   1.397   0.486  0.7929 -1.2370  2.5227
15954SOL    HW249304   7.172   1.532   0.554 -0.0612  0.5274 -0.5977
15955SOL     OW49305   1.669   0.975   1.917  0.2401 -0.0121 -0.4315
15955SOL    HW149306   1.714   0.895   1.889  0.9635  0.0535  0.5008
15955SOL    HW249307   1.604   0.945   1.981  2.4651  0.3695  2.1794
15956SOL     OW49308   4.690   4.506   9.068 -0.0787  0.1957 -0.0436
15956SOL    HW149309   4.679   4.544   9.155 -2.1170 -1.2179  0.3791
15956SOL    HW249310   4.656   4.572   9.008  0.9492  1.0006  0.2287
15957SOL     OW49311   5.539   1.557   9.388 -0.0119 -0.3687  0.1241
15957SOL    HW149312   5.523   1.473   9.430 -1.9674  0.0373  0.3040
15957SOL    HW249313   5.634   1.568   9.391  0.1238 -1.5764  2.0278
15958SOL     OW49314   4.962   6.274   9.139 -0.2087 -0.2903 -0.4919
15958SOL    HW149315   4.934   6.210   9.204 -0.7680  0.2866 -0.1581
15958SOL    HW249316   4.883   6.322   9.117  0.5817  1.8337  0.9716
15959SOL     OW49317   4.748   2.438   7.803 -0.2089 -1.0959 -0.0126
15959SOL    HW149318   4.803   2.461   7.879 -1.1097  0.6193  0.1695
15959SOL    HW249319   4.711   2.353   7.825 -0.3384 -0.6931  1.4402
15960SOL     OW49320   5.417   3.041   2.627  0.2473  0.0088  0.3370
15960SOL    HW149321   5.438   3.133   2.640 -1.2001  0.3232  0.6534
15960SOL    HW249322   5.332   3.042   2.583 -0.2443 -1.1650  1.1915
15961SOL     OW49323   2.020   6.239   8.841  0.8180 -0.5034  0.1483
15961SOL    HW149324   2.075   6.206   8.769  1.5397 -1.3817  1.0626
15961SOL    HW249325   1.965   6.165   8.865  0.5863 -0.2174  0.5105
15962SOL     OW49326   0.225   0.785  12.047 -0.0443 -0.1286  0.1696
15962SOL    HW149327   0.301   0.835  12.018  0.0322  0.3442  1.1258
15962SOL    HW249328   0.154   0.849  12.052 -0.8971 -0.8315 -2.0538
15963SOL     OW49329   2.424   3.336   7.473 -0.2394  0.8194 -0.1056
15963SOL    HW149330   2.422   3.317   7.379 -1.6484  0.2634  0.0118
15963SOL    HW249331   2.340   3.379   7.491 -0.6583 -0.4545  1.1655
15964SOL     OW49332   7.562   5.944   5.112  0.1611  0.1521 -0.5864
15964SOL    HW149333   7.573   5.853   5.140 -0.8995 -0.2598 -1.4531
15964SOL    HW249334   7.610   5.995   5.178 -1.2922 -0.8381  1.3440
15965SOL     OW49335   5.520   3.519   0.606 -0.1353  0.5724  0.1913
15965SOL    HW149336   5.555   3.576   0.675  1.6429 -0.8956  0.5887
15965SOL    HW249337   5.497   3.438   0.652 -0.9252  0.3146 -0.6294
15966SOL     OW49338   7.850   3.945   2.045 -0.5364 -0.0953 -0.9152
15966SOL    HW149339   7.814   4.012   2.104  1.6735 -0.2406  0.7588
15966SOL    HW249340   7.847   3.985   1.958  0.5469  2.1682  0.0002
15967SOL     OW49341   7.072   2.013   4.265 -0.3186 -0.3402 -0.1079
15967SOL    HW149342   7.103   1.980   4.349 -0.8569 -0.6944 -0.0433
15967SOL    HW249343   6.978   2.023   4.276 -0.3707 -0.2491 -0.6194
15968SOL     OW49344   3.491   0.101   2.956  0.2856 -0.0482  0.1061
15968SOL    HW149345   3.523   0.093   2.866 -0.9199 -0.1916 -0.3360
15968SOL    HW249346   3.520   0.188   2.983  0.7495 -0.0413 -0.3848
15969SOL     OW49347   7.101   0.273   7.065 -0.3692  0.6144  0.0647
15969SOL    HW149348   7.117   0.181   7.080  0.1425  0.7076  0.0944
15969SOL    HW249349   7.140   0.318   7.140  0.5435  0.9420 -0.5898
15970SOL     OW49350   6.690   3.257   1.349  0.1503  0.1471 -0.0806
15970SOL    HW149351   6.743   3.273   1.427 -1.4355  0.8968  0.9000
15970SOL    HW249352   6.707   3.165   1.327 -0.6832 -0.6366  2.2353
15971SOL     OW49353   1.583   3.140   7.295 -0.0512 -0.2165  0.9574
15971SOL    HW149354   1.571   3.068   7.233  0.1205 -0.0095  0.6816
15971SOL    HW249355   1.676   3.136   7.320  0.0467  0.1324  0.6597
15972SOL     OW49356   4.195   1.148  10.413 -0.6322 -0.1573  0.0512
15972SOL    HW149357   4.190   1.120  10.505 -2.6357  0.0323  0.0348
15972SOL    HW249358   4.125   1.101  10.369 -0.0083  0.1334 -1.3063
15973SOL     OW49359   5.430   1.032  11.531 -0.3104 -0.7517  0.0649
15973SOL    HW149360   5.447   1.032  11.626  0.6911 -0.5633 -0.1043
15973SOL    HW249361   5.446   0.941  11.505  0.9690 -0.4668 -0.1789
15974SOL     OW49362   6.594   0.638  10.133  0.4718  0.6355 -0.0473
15974SOL    HW149363   6.564   0.724  10.104 -1.2171 -0.5231 -1.9740
15974SOL    HW249364   6.647   0.605  10.060  0.8499 -0.0919  0.5402
15975SOL     OW49365   4.514   3.212   4.903 -0.2520  0.3086  0.1969
15975SOL    HW149366   4.589   3.193   4.959  1.8496  0.5242 -2.3726
15975SOL    HW249367   4.470   3.285   4.946  1.5263  0.7700  1.3400
15976SOL     OW49368   4.260   1.170  12.353  0.1222 -0.2644 -0.0884
15976SOL    HW149369   4.248   1.075  12.348 -0.7962 -0.1139 -1.0729
15976SOL    HW249370   4.274   1.198  12.263  3.6088  0.1950  0.4491
15977SOL     OW49371   2.924   7.792   7.562 -0.0565  0.0952  0.0510
15977SOL    HW149372   2.908   7.715   7.616 -1.8919  0.4596  0.0930
15977SOL    HW249373   2.887   7.769   7.477  0.2701  0.5763 -0.2264
15978SOL     OW49374   7.840   2.893   9.793  0.8060  0.0778  0.0647
15978SOL    HW149375   7.811   2.813   9.837  1.1110  0.2322  0.5562
15978SOL    HW249376   7.887   2.942   9.861  1.1767  0.3763 -0.4040
15979SOL     OW49377   0.786   3.840  11.445 -0.2718 -0.0347 -0.2186
15979SOL    HW149378   0.692   3.856  11.429 -0.2137  1.3043  0.5996
15979SOL    HW249379   0.827   3.925  11.430  0.4865 -0.0113  1.7486
15980SOL     OW49380   7.140   2.838   1.761  0.2005 -0.3497 -0.1276
15980SOL    HW149381   7.187   2.798   1.688  0.5571 -1.3844  0.6396
15980SOL    HW249382   7.121   2.765   1.820 -1.7049  0.1659 -0.0372
15981SOL     OW49383   5.783   3.751   0.141  0.4311  0.0017 -0.3377
15981SOL    HW149384   5.810   3.702   0.219 -2.3626 -0.7662  0.2906
15981SOL    HW249385   5.827   3.707   0.068  1.3331 -0.6999  0.5983
15982SOL     OW49386   0.708   2.901   8.774 -0.2281  0.3619 -0.0334
15982SOL    HW149387   0.653   2.916   8.697 -0.3123 -0.2662 -0.0992
15982SOL    HW249388   0.767   2.977   8.776 -1.1210  1.0795  0.0697
15983SOL     OW49389   2.659   5.871  11.751  0.3699  0.1550 -0.3625
15983SOL    HW149390   2.708   5.864  11.833 -0.1125 -0.4434 -0.1088
15983SOL    HW249391   2.665   5.963  11.726 -0.2148  0.5312  0.8168
15984SOL     OW49392   3.946   7.778   0.204  0.0567 -0.1745  0.0322
15984SOL    HW149393   3.852   7.766   0.190 -0.2192  0.4414  1.1726
15984SOL    HW249394   3.959   7.872   0.200  0.5150 -0.2139  0.4637
15985SOL     OW49395   1.366   4.305   0.403 -0.1127  0.0012 -0.5945
15985SOL    HW149396   1.389   4.212   0.396 -0.4282 -0.2016  0.6808
15985SOL    HW249397   1.432   4.340   0.463 -0.2215  0.5144 -0.7732
15986SOL     OW49398   5.495   7.127  12.157 -0.0849  0.8617 -0.2611
15986SOL    HW149399   5.483   7.113  12.250  1.9175  2.4648  0.3245
15986SOL    HW249400   5.579   7.084  12.137 -0.8700 -0.1724 -1.5361
15987SOL     OW49401   4.975   1.731   5.864  0.2883  0.0561  0.5086
15987SOL    HW149402   4.967   1.704   5.956 -1.0278 -0.0584  0.3697
15987SOL    HW249403   4.885   1.742   5.834  0.5979 -1.7209 -1.2936
15988SOL     OW49404   5.536   1.201   0.143  0.1931 -0.3765 -0.2976
15988SOL    HW149405   5.466   1.224   0.082 -1.1245 -1.7344  0.6303
15988SOL    HW249406   5.495   1.205   0.230  1.7174  0.3745  0.4422
15989SOL     OW49407   2.394   3.794   4.300  0.0901 -0.0067 -0.5452
15989SOL    HW149408   2.479   3.838   4.298 -0.0846  0.3185 -1.3752
15989SOL    HW249409   2.330   3.866   4.304 -0.1877 -0.1620 -1.6511
15990SOL     OW49410   4.990   7.703   6.203  0.2568  0.4684 -0.0013
15990SOL    HW149411   5.011   7.732   6.115  1.6536 -1.1363 -0.2298
15990SOL    HW249412   4.894   7.698   6.204  0.2456 -0.7869 -1.8874
15991SOL     OW49413   0.310   1.709   4.734  0.5600  0.0194 -0.5458
15991SOL    HW149414   0.379   1.721   4.669  0.1689  0.3894 -0.9018
15991SOL    HW249415   0.315   1.616   4.757  2.0222  0.2964  0.4100
15992SOL     OW49416   7.131   0.385   6.804  0.4669 -0.6017  0.1526
15992SOL    HW149417   7.128   0.354   6.895 -1.8803 -0.9620  0.0252
15992SOL    HW249418   7.081   0.466   6.805  3.1984  1.2153 -0.2774
15993SOL     OW49419   3.604   0.681  10.385 -0.2556 -0.8083  0.1755
15993SOL    HW149420   3.562   0.670  10.300  0.9168 -0.6372 -0.4393
15993SOL    HW249421   3.695   0.701  10.365  0.5402 -2.7709  1.4698
15994SOL     OW49422   7.167   0.611   2.318 -0.2746  0.2003 -0.2356
15994SOL    HW149423   7.254   0.621   2.356 -0.5154 -0.5948  0.5453
15994SOL    HW249424   7.133   0.701   2.313  0.5592  0.5103 -0.4964
15995SOL     OW49425   0.428   4.915  10.909 -0.0398  0.4772  0.2325
15995SOL    HW149426   0.468   5.002  10.902  1.1603 -0.0997 -0.3356
15995SOL    HW249427   0.483   4.868  10.971 -0.6247  0.0876  0.4627
15996SOL     OW49428   0.950   5.437   9.254 -0.8876  0.0729 -0.1627
15996SOL    HW149429   1.030   5.398   9.219 -1.1294  0.6538 -1.4445
15996SOL    HW249430   0.881   5.409   9.194 -1.5627  0.0238  0.6184
15997SOL     OW49431   1.132   3.981  11.261 -0.1451 -0.1139 -0.1706
15997SOL    HW149432   1.174   3.959  11.344  1.3738 -0.1397 -0.9137
15997SOL    HW249433   1.148   3.905  11.205 -0.8609  0.0438 -0.6061
15998SOL     OW49434   0.651   1.941   7.925 -0.2096  0.1329 -0.4322
15998SOL    HW149435   0.742   1.953   7.954 -0.2007 -0.3971 -0.2321
15998SOL    HW249436   0.658   1.895   7.842 -0.2281  1.8480 -1.4211
15999SOL     OW49437   0.038   7.242   6.389  0.4191  0.6489 -0.0183
15999SOL    HW149438   0.058   7.263   6.480 -1.0458 -3.2697  1.4030
15999SOL    HW249439   0.064   7.321   6.340  3.3781  2.0964  3.4249
16000SOL     OW49440   6.880   7.896   1.361 -0.5016  0.3116 -0.4479
16000SOL    HW149441   6.915   7.938   1.283  0.9632  0.1889  0.1100
16000SOL    HW249442   6.932   7.931   1.434 -1.1073 -0.3759  0.3468
16001SOL     OW49443   3.991   5.541   5.802  1.3477  0.3002  0.1750
16001SOL    HW149444   4.003   5.595   5.880  2.3133  1.2495 -0.6028
16001SOL    HW249445   4.058   5.571   5.741  0.0981  0.1580 -1.3404
16002SOL     OW49446   2.114   5.646   7.012 -0.0139 -0.1612  0.2936
16002SOL    HW149447   2.130   5.692   7.095 -2.7236  0.0316  0.8348
16002SOL    HW249448   2.191   5.592   6.998  2.1630  2.5400  1.0026
16003SOL     OW49449   5.637   2.008   0.859 -0.5709  0.0047 -0.3027
16003SOL    HW149450   5.587   2.075   0.813 -0.1051  0.6129  0.0539
16003SOL    HW249451   5.671   2.053   0.937  0.5743 -0.3748 -0.5655
16004SOL     OW49452   2.244   4.529   1.726 -0.1821 -0.0974  1.3395
16004SOL    HW149453   2.198   4.611   1.713 -1.2832 -0.7076  1.2237
16004SOL    HW249454   2.236   4.483   1.642 -0.8360 -0.9090  1.8236
16005SOL     OW49455   4.316   4.234   8.938 -0.5873  0.3518 -0.2153
16005SOL    HW149456   4.380   4.163   8.937 -0.7272  0.2261 -0.2709
16005SOL    HW249457   4.349   4.296   9.003 -1.0847 -0.3318  0.7101
16006SOL     OW49458   0.834   6.427   4.801 -0.2531 -0.4405  0.7487
16006SOL    HW149459   0.896   6.381   4.859  0.1691  0.6072  1.1573
16006SOL    HW249460   0.801   6.500   4.854  0.4658  0.8084 -0.4535
16007SOL     OW49461   1.184   5.322  11.171  0.0411  0.5391  0.0856
16007SOL    HW149462   1.219   5.236  11.193 -0.2912  0.0416 -1.2340
16007SOL    HW249463   1.261   5.379  11.171  0.4020  0.0559  0.0692
16008SOL     OW49464   6.486   6.427  12.328 -0.0195 -0.4694 -0.1308
16008SOL    HW149465   6.581   6.443  12.331 -0.0120 -0.4649 -0.3657
16008SOL    HW249466   6.448   6.506  12.367  0.1217 -1.0571  1.2409
16009SOL     OW49467   2.382   4.007   3.117 -0.4643  0.2669 -0.1197
16009SOL    HW149468   2.317   3.957   3.166  1.6532 -3.2492 -0.5419
16009SOL    HW249469   2.367   3.983   3.025  0.5392  0.5215 -0.3658
16010SOL     OW49470   1.230   0.051   6.290  1.0081  0.3297 -0.1072
16010SOL    HW149471   1.175   0.048   6.368  0.4455  0.4959 -0.4987
16010SOL    HW249472   1.225  -0.037   6.254  0.4239  0.5417 -0.5427
16011SOL     OW49473   5.840   6.463   3.407  0.3275  0.2749  0.4753
16011SOL    HW149474   5.865   6.555   3.406  0.9725  0.1013 -0.0605
16011SOL    HW249475   5.857   6.433   3.317  0.6136 -0.4900  0.7799
16012SOL     OW49476   3.876   1.901  10.073 -0.6765 -0.7573 -0.1035
16012SOL    HW149477   3.943   1.891  10.006  0.8863  0.2192  1.2427
16012SOL    HW249478   3.850   1.993  10.067 -0.6379 -0.7005  0.5060
16013SOL     OW49479   0.238   1.447   4.769 -0.0031 -0.4000 -0.0620
16013SOL    HW149480   0.165   1.501   4.798  0.7774  0.0522  1.1540
16013SOL    HW249481   0.199   1.383   4.710 -1.1121  0.8435 -0.7275
16014SOL     OW49482   4.029   7.753   0.498 -0.3259 -0.2095 -0.3203
16014SOL    HW149483   4.023   7.670   0.450 -1.4125 -0.1913 -0.2298
16014SOL    HW249484   3.957   7.806   0.463  1.2907  1.3176 -1.5328
16015SOL     OW49485   1.550   4.389   6.386  0.4135  0.0593 -0.0837
16015SOL    HW149486   1.531   4.415   6.476  0.7639  1.8242 -0.4730
16015SOL    HW249487   1.645   4.385   6.381  0.3641 -1.2897 -0.0590
16016SOL     OW49488   2.850   3.218  11.763  0.2720 -0.0676  0.0654
16016SOL    HW149489   2.816   3.296  11.719  0.8357 -1.0462 -2.2696
16016SOL    HW249490   2.774   3.160  11.769  0.3387 -0.1908 -0.2552
16017SOL     OW49491   3.964   7.249   9.280 -0.3758 -0.5821  0.1525
16017SOL    HW149492   3.889   7.278   9.227 -0.1038  0.4560  0.3201
16017SOL    HW249493   3.976   7.318   9.345  1.5188 -0.0782 -0.6607
16018SOL     OW49494   5.835   5.780   8.231  0.0046  0.1244  0.0682
16018SOL    HW149495   5.814   5.735   8.313 -0.1847 -0.1524 -0.1336
16018SOL    HW249496   5.878   5.861   8.259 -0.6600  0.3469  0.4613
16019SOL     OW49497   5.143   7.192  11.411 -0.2752 -0.0534  0.4305
16019SOL    HW149498   5.182   7.270  11.450 -1.4317  0.3792  0.7695
16019SOL    HW249499   5.181   7.188  11.323 -0.2422  0.9236  0.3870
16020SOL     OW49500   2.486   0.019  11.788  0.0746 -0.0912 -0.6062
16020SOL    HW149501   2.502   0.088  11.724 -1.5794  1.6362  0.7138
16020SOL    HW249502   2.571   0.004  11.828  0.5413  0.9971 -1.1354
16021SOL     OW49503   4.618   4.289   6.073 -1.1505  0.3086 -0.2125
16021SOL    HW149504   4.643   4.381   6.063 -0.4911  0.4841  2.4232
16021SOL    HW249505   4.700   4.242   6.073 -1.3292 -0.0180  0.5749
16022SOL     OW49506   7.062   6.538  10.144 -0.4598  0.3066 -0.1575
16022SOL    HW149507   7.134   6.578  10.193  0.4062  0.3518 -1.4156
16022SOL    HW249508   7.009   6.612  10.115  0.2993  0.4691 -1.1940
16023SOL     OW49509   7.806   1.608   3.803 -0.0129 -0.2439 -0.6039
16023SOL    HW149510   7.823   1.613   3.709 -0.7244 -3.2029 -0.9822
16023SOL    HW249511   7.843   1.524   3.829 -0.7062  0.0788  1.5822
16024SOL     OW49512   6.896   5.176   1.709 -0.2415 -0.4413 -0.3430
16024SOL    HW149513   6.869   5.233   1.637  0.9637  0.1179 -0.3779
16024SOL    HW249514   6.912   5.236   1.782 -0.7966 -0.9412  0.2035
16025SOL     OW49515   5.540   6.373  10.156 -0.0947 -0.1180  0.4072
16025SOL    HW149516   5.456   6.330  10.167 -0.9297  1.4954  0.6523
16025SOL    HW249517   5.518   6.464  10.136  1.5842  0.1493 -0.4053
16026SOL     OW49518   5.418   2.460   1.883 -0.2090 -0.5639  0.3133
16026SOL    HW149519   5.408   2.383   1.827  0.3449 -0.7315  0.4361
16026SOL    HW249520   5.375   2.436   1.964  0.2735 -0.8859  0.4787
16027SOL     OW49521   4.207   6.524  11.982  0.4828  0.5970 -0.0452
16027SOL    HW149522   4.265   6.592  12.016 -0.0578  1.8122 -1.4166
16027SOL    HW249523   4.260   6.445  11.980  1.0253  0.8568  1.9323
16028SOL     OW49524   3.716   5.940   6.301 -0.7525  0.2941 -0.4422
16028SOL    HW149525   3.786   5.876   6.313 -1.1399 -0.2303 -0.9331
16028SOL    HW249526   3.708   5.950   6.207 -0.7482  1.0188 -0.3684
16029SOL     OW49527   0.415   6.231   0.627  0.2735 -0.0626  0.2089
16029SOL    HW149528   0.388   6.276   0.707 -0.3721  2.0719 -1.1232
16029SOL    HW249529   0.509   6.216   0.639 -0.3779 -2.9975  2.7758
16030SOL     OW49530   0.052   1.880   3.772  0.4905  0.0879  0.5717
16030SOL    HW149531   0.028   1.930   3.850 -1.3328  0.3412 -0.1108
16030SOL    HW249532  -0.002   1.801   3.777 -3.5191  2.2629 -2.8116
16031SOL     OW49533   2.154   0.047   6.457 -0.6514  0.4159 -0.1350
16031SOL    HW149534   2.090   0.045   6.387  0.2652  0.2186 -0.9819
16031SOL    HW249535   2.236   0.073   6.415 -0.2149  0.9044  0.9622
16032SOL     OW49536   2.297   4.560   4.608 -0.1912 -0.0769 -0.3639
16032SOL    HW149537   2.340   4.487   4.563 -0.1070  0.0384 -0.4749
16032SOL    HW249538   2.294   4.533   4.700 -1.1262 -0.6758 -0.5604
16033SOL     OW49539   0.485   6.963  10.349  0.5769  0.7636  0.3529
16033SOL    HW149540   0.579   6.963  10.365  0.5483  0.8078  0.5157
16033SOL    HW249541   0.457   6.874  10.374  0.5218  0.8530  0.6096
16034SOL     OW49542   2.901   2.500   1.763 -0.0249 -0.1881  0.1594
16034SOL    HW149543   2.936   2.462   1.682  0.9128 -1.0476  0.9255
16034SOL    HW249544   2.886   2.424   1.820  0.3419  0.4714  1.1620
16035SOL     OW49545   6.618   2.009   6.846 -0.3715  0.4354 -0.1387
16035SOL    HW149546   6.701   2.004   6.892 -0.8917 -0.0060  0.7911
16035SOL    HW249547   6.639   2.050   6.762  1.4573 -3.1196 -1.6111
16036SOL     OW49548   3.504   0.976   6.302  0.5500 -0.5798  0.1282
16036SOL    HW149549   3.532   0.915   6.371  0.2299 -0.3927  0.4229
16036SOL    HW249550   3.424   0.938   6.267  1.9770 -1.9921 -1.8376
16037SOL     OW49551   6.192   2.752   6.008 -0.0903  0.0368 -0.1997
16037SOL    HW149552   6.190   2.844   6.034  1.7656  0.2446 -0.6208
16037SOL    HW249553   6.204   2.755   5.913  1.7660 -0.5937 -0.0180
16038SOL     OW49554   0.270   0.964   1.518 -0.0619  0.3985  0.5735
16038SOL    HW149555   0.298   0.873   1.508 -0.6772 -0.2241  3.5579
16038SOL    HW249556   0.197   0.974   1.457  0.5145 -0.8295 -0.3718
16039SOL     OW49557   0.519   7.856   7.055  0.0145 -0.1548 -0.0879
16039SOL    HW149558   0.520   7.947   7.025 -1.9021  0.7208  2.1335
16039SOL    HW249559   0.582   7.854   7.127 -0.8033 -0.2649  0.6326
16040SOL     OW49560   7.637   0.188   0.729  0.0465  0.1725  0.1527
16040SOL    HW149561   7.550   0.155   0.753 -1.0947  3.3807  0.9565
16040SOL    HW249562   7.696   0.149   0.793 -0.6222 -2.4352 -0.6860
16041SOL     OW49563   6.982   0.306   2.482 -0.2960 -0.1752  0.3260
16041SOL    HW149564   6.912   0.346   2.533 -1.1381 -1.2606  0.0673
16041SOL    HW249565   6.939   0.274   2.403  0.4885 -0.8721  0.1645
16042SOL     OW49566   2.744   7.467   9.275 -0.1622 -0.1965  0.4571
16042SOL    HW149567   2.741   7.415   9.195 -1.9899 -0.4944  0.6712
16042SOL    HW249568   2.836   7.488   9.287  0.4457 -2.1207 -0.4592
16043SOL     OW49569   3.017   1.104  12.055  0.0974  0.1548 -0.4834
16043SOL    HW149570   3.077   1.179  12.053  0.2239  0.0421 -1.1360
16043SOL    HW249571   2.932   1.141  12.030  0.4717 -0.1804 -2.4032
16044SOL     OW49572   1.471   3.842   9.533  0.2421  0.3996  0.4788
16044SOL    HW149573   1.441   3.933   9.541 -0.3265  0.1194  1.7391
16044SOL    HW249574   1.512   3.823   9.617 -1.3345 -1.0971  0.9522
16045SOL     OW49575   1.781   7.363   0.895 -0.5583 -0.0110 -0.4658
16045SOL    HW149576   1.847   7.393   0.832 -0.8174  1.1564 -0.2058
16045SOL    HW249577   1.781   7.429   0.964 -1.5372 -0.3351 -0.1343
16046SOL     OW49578   1.773   5.732  10.941 -0.0193 -0.0910  0.4784
16046SOL    HW149579   1.695   5.783  10.961  0.9171  0.9799  1.5185
16046SOL    HW249580   1.774   5.662  11.006 -0.3671 -0.4033  0.1518
16047SOL     OW49581   5.009   2.242   7.345 -0.3806 -0.0379  0.4074
16047SOL    HW149582   5.101   2.261   7.324 -0.1905 -1.5951 -0.2575
16047SOL    HW249583   4.960   2.305   7.293  0.2647 -0.5058 -0.8070
16048SOL     OW49584   7.295   1.182  10.792 -0.3904  0.3246 -0.4791
16048SOL    HW149585   7.371   1.215  10.744  1.7421 -3.8632 -0.4678
16048SOL    HW249586   7.225   1.179  10.727  0.9740 -0.4486 -1.9951
16049SOL     OW49587   2.030   0.467   1.983  0.4257 -0.4924 -0.2022
16049SOL    HW149588   2.049   0.410   2.058  0.0516 -0.2960  0.0503
16049SOL    HW249589   1.982   0.540   2.022  0.4364 -0.2727 -0.6035
16050SOL     OW49590   5.208   2.227   6.972 -0.6556 -0.7294  0.7313
16050SOL    HW149591   5.180   2.313   6.940  0.7078  0.7710  3.2586
16050SOL    HW249592   5.298   2.240   7.001 -0.4467 -3.0158  1.3260
16051SOL     OW49593   4.146   3.628   2.235 -0.2233  0.3577 -0.5185
16051SOL    HW149594   4.133   3.665   2.147 -0.9358 -1.1801 -1.0943
16051SOL    HW249595   4.064   3.584   2.255 -0.1461  0.8683  1.0362
16052SOL     OW49596   6.670   3.234   3.812  0.0336 -0.7876  0.4282
16052SOL    HW149597   6.610   3.162   3.791 -0.7319 -0.4063  1.2577
16052SOL    HW249598   6.642   3.306   3.756 -0.7338 -0.3986  1.2874
16053SOL     OW49599   5.750   5.865   1.719 -0.1291 -0.0659  0.3052
16053SOL    HW149600   5.844   5.880   1.720  0.0160 -0.3117  3.7046
16053SOL    HW249601   5.741   5.769   1.724 -0.5193 -0.0116  0.7533
16054SOL     OW49602   6.988   2.829   7.546 -0.6734  0.0905  0.1394
16054SOL    HW149603   6.950   2.747   7.513 -0.3644  0.1514 -0.3900
16054SOL    HW249604   7.074   2.833   7.504 -1.0782  1.1788 -0.6157
16055SOL     OW49605   1.568   3.839  11.881  0.4015  0.1412 -0.0970
16055SOL    HW149606   1.618   3.860  11.960 -0.6213 -1.3273  0.9781
16055SOL    HW249607   1.500   3.906  11.878  0.5214  0.2789  0.1859
16056SOL     OW49608   3.511   6.654   5.134  0.6983 -0.2165 -0.2746
16056SOL    HW149609   3.462   6.622   5.210  0.4717  0.1711 -0.2569
16056SOL    HW249610   3.569   6.721   5.170  0.5666 -0.0080 -0.4500
16057SOL     OW49611   2.747   4.992   1.322 -0.1753  0.6004 -0.3246
16057SOL    HW149612   2.724   5.025   1.409 -2.7107 -1.8346  0.0567
16057SOL    HW249613   2.663   4.981   1.278  0.9997  0.9519 -2.8315
16058SOL     OW49614   5.000   0.549   3.850  0.1070  0.1143  0.3077
16058SOL    HW149615   5.072   0.606   3.879 -1.6189  2.8118 -0.3731
16058SOL    HW249616   5.030   0.515   3.766  1.3179 -0.2603  0.8722
16059SOL     OW49617   3.736   7.284   1.852 -0.4159 -0.1903  0.1807
16059SOL    HW149618   3.811   7.226   1.863  0.1715  0.0752 -1.8358
16059SOL    HW249619   3.700   7.260   1.766 -1.9179  0.4941  0.5922
16060SOL     OW49620   6.606   3.062  11.955  0.1807  0.1920 -0.0923
16060SOL    HW149621   6.679   3.025  11.905 -0.0418  0.3903 -0.5657
16060SOL    HW249622   6.621   3.030  12.045 -0.3058 -1.4949 -0.5731
16061SOL     OW49623   5.109   0.361   6.430  0.0172  0.2445 -0.0774
16061SOL    HW149624   5.014   0.372   6.433  0.0919  0.7999  0.4641
16061SOL    HW249625   5.122   0.269   6.407 -0.6438  0.5686 -1.9126
16062SOL     OW49626   6.808   7.124   0.681  0.2054  0.1040 -0.3927
16062SOL    HW149627   6.787   7.176   0.758 -0.0177 -1.2770  0.5265
16062SOL    HW249628   6.861   7.182   0.626 -1.3255  1.7963 -0.1677
16063SOL     OW49629   4.183   3.634   4.625  0.2325  0.9019  0.1227
16063SOL    HW149630   4.124   3.558   4.626  0.3279  0.7037 -2.4741
16063SOL    HW249631   4.127   3.708   4.648 -1.0896  0.6970 -2.1264
16064SOL     OW49632   1.192   7.272   2.435 -0.3460  0.1304 -0.2629
16064SOL    HW149633   1.108   7.295   2.474 -0.5106 -1.8429  0.7089
16064SOL    HW249634   1.247   7.349   2.449 -1.7405  1.1494 -0.1761
16065SOL     OW49635   0.316   5.803  11.396  0.2665 -0.2362  0.0877
16065SOL    HW149636   0.286   5.771  11.481  0.2131  1.0645  0.5930
16065SOL    HW249637   0.411   5.799  11.400  0.2535 -0.5228  0.0724
16066SOL     OW49638   4.950   5.878   5.621 -0.2872  0.0970 -0.3278
16066SOL    HW149639   4.863   5.908   5.597 -0.3222  0.6599  0.4539
16066SOL    HW249640   4.995   5.865   5.538 -0.9120  0.4219 -0.7244
16067SOL     OW49641   6.264   6.337   6.468  0.1846 -0.4851 -0.7591
16067SOL    HW149642   6.188   6.291   6.431  0.7707 -1.7729 -0.4151
16067SOL    HW249643   6.327   6.340   6.397  0.4370 -0.9152 -0.5590
16068SOL     OW49644   4.060   3.976   4.892 -1.3016  0.0256 -0.1241
16068SOL    HW149645   4.084   3.885   4.914  0.7778  0.3065 -1.0853
16068SOL    HW249646   4.072   3.982   4.798  0.9413  1.9122  0.1975
16069SOL     OW49647   3.606   7.647  11.828 -0.4632  0.3567 -0.2139
16069SOL    HW149648   3.557   7.572  11.795 -1.6017  0.7790  0.4823
16069SOL    HW249649   3.683   7.652  11.771 -0.3086 -1.3820 -0.2238
16070SOL     OW49650   2.895   5.610  11.346 -0.7088  0.6431  0.4245
16070SOL    HW149651   2.869   5.654  11.427 -0.8332  0.4643  0.4818
16070SOL    HW249652   2.935   5.679  11.293 -2.8346  1.3569 -0.3768
16071SOL     OW49653   2.213   5.922   6.449  0.4389 -0.1685 -0.0609
16071SOL    HW149654   2.240   5.842   6.493 -2.4733 -0.8793  0.6415
16071SOL    HW249655   2.192   5.983   6.521  1.1506  0.7151 -0.5723
16072SOL     OW49656   0.307   5.548   2.615 -0.7645  0.4022  0.1271
16072SOL    HW149657   0.262   5.632   2.614 -0.3838  0.6139  0.4540
16072SOL    HW249658   0.246   5.487   2.575 -0.8029  0.9610 -0.6806
16073SOL     OW49659   1.817   0.871  10.799  0.5646 -0.1240 -0.6255
16073SOL    HW149660   1.852   0.897  10.884  0.8506 -0.7524 -0.5414
16073SOL    HW249661   1.740   0.926  10.786 -0.6012 -1.3323  0.9094
16074SOL     OW49662   5.242   5.664   1.016 -0.4745 -0.1830 -0.3638
16074SOL    HW149663   5.309   5.730   1.003  0.1530 -1.0012 -1.4847
16074SOL    HW249664   5.245   5.643   1.109  0.2443  0.3914 -0.2571
16075SOL     OW49665   1.009   2.342   9.401  0.4034 -0.0623 -0.1401
16075SOL    HW149666   0.974   2.274   9.458  0.4502  0.3919  0.4404
16075SOL    HW249667   1.079   2.299   9.353  0.1111 -0.5516 -0.1340
16076SOL     OW49668   1.216   2.024  11.109  0.1391  0.1229 -0.1038
16076SOL    HW149669   1.155   2.098  11.108 -0.8779 -0.6675  0.7229
16076SOL    HW249670   1.218   1.994  11.018 -1.0121 -0.0706 -0.0761
16077SOL     OW49671   7.765   2.990  10.202  0.2128  0.1436  0.1463
16077SOL    HW149672   7.845   2.993  10.149 -0.2372  0.8210 -0.5244
16077SOL    HW249673   7.786   3.043  10.279  0.5649 -0.0655  0.1966
16078SOL     OW49674   6.586   0.975   8.398 -0.0234  0.0813 -0.7842
16078SOL    HW149675   6.491   0.969   8.400  0.0575 -1.5654 -0.0051
16078SOL    HW249676   6.614   0.940   8.483  1.3217 -0.7816 -1.5373
16079SOL     OW49677   0.418   7.758   0.964 -0.3487  0.0753  0.8549
16079SOL    HW149678   0.416   7.699   1.040  1.9519 -1.3918 -0.1056
16079SOL    HW249679   0.380   7.707   0.893  0.8430  0.0248  0.2179
16080SOL     OW49680   6.539   6.957  10.607 -0.2822 -0.2277  0.1038
16080SOL    HW149681   6.578   7.032  10.564  0.8258 -0.0087  1.4336
16080SOL    HW249682   6.601   6.885  10.592 -1.6529 -1.1056 -1.7469
16081SOL     OW49683   5.710   2.784  11.640  0.4203 -0.0330 -0.0058
16081SOL    HW149684   5.805   2.793  11.631  0.3878  2.0719  1.1755
16081SOL    HW249685   5.674   2.852  11.583 -0.4287 -1.1937 -0.8976
16082SOL     OW49686   6.430   4.917   3.702  0.1222 -0.5006 -0.6372
16082SOL    HW149687   6.366   4.987   3.688  0.7562 -0.1717 -2.1697
16082SOL    HW249688   6.471   4.905   3.616  0.9533 -1.8520 -0.0879
16083SOL     OW49689   1.297   7.621   3.929 -0.0176 -0.0053  0.2160
16083SOL    HW149690   1.361   7.593   3.863  0.3113  2.5195 -0.6253
16083SOL    HW249691   1.221   7.649   3.879 -0.2994  0.6639  1.0003
16084SOL     OW49692   2.530   1.448   5.471 -0.3032  0.1298  0.1196
16084SOL    HW149693   2.536   1.392   5.548  0.2891  0.9383  0.6799
16084SOL    HW249694   2.610   1.501   5.474 -0.0663 -0.1149 -1.2769
16085SOL     OW49695   1.736   2.379  10.100 -0.2690  0.1794  0.5517
16085SOL    HW149696   1.670   2.312  10.116 -0.1613  0.2947  1.5248
16085SOL    HW249697   1.810   2.353  10.155 -0.0854  0.8960  0.6454
16086SOL     OW49698   0.616   4.081   2.841 -0.2133  0.5379  0.7331
16086SOL    HW149699   0.581   4.088   2.930 -1.3574  0.9222  0.2659
16086SOL    HW249700   0.652   4.168   2.823 -3.4959  1.7739 -0.5745
16087SOL     OW49701   1.290   6.640   2.130  0.2163 -0.1870 -0.1606
16087SOL    HW149702   1.342   6.716   2.156  1.1745 -0.2598 -1.7466
16087SOL    HW249703   1.235   6.672   2.058  0.9691 -1.0790 -1.1681
16088SOL     OW49704   2.481   5.189   5.542  0.2178 -0.2469 -0.2824
16088SOL    HW149705   2.461   5.233   5.625 -0.4465  1.3673 -1.2698
16088SOL    HW249706   2.468   5.096   5.562  0.1637  0.0890  1.4450
16089SOL     OW49707   7.672   3.782   0.760 -0.0232 -0.0113  0.5347
16089SOL    HW149708   7.629   3.780   0.845 -0.6986 -0.9466  0.1947
16089SOL    HW249709   7.638   3.704   0.714  1.8344 -0.6488  0.1480
16090SOL     OW49710   6.468   4.027  11.645 -0.3259  0.4462  0.1562
16090SOL    HW149711   6.431   4.108  11.609 -0.2926  0.3871 -0.0108
16090SOL    HW249712   6.398   3.989  11.698 -0.4253  0.4517  0.0270
16091SOL     OW49713   4.901   7.531   7.623 -0.4883 -0.8748 -0.4993
16091SOL    HW149714   4.862   7.489   7.547  1.7159 -0.2497 -2.0493
16091SOL    HW249715   4.852   7.613   7.633 -0.9697 -1.0890 -1.0633
16092SOL     OW49716   5.278   6.862   9.103  0.3812  0.3132 -0.0468
16092SOL    HW149717   5.192   6.832   9.074  0.4759 -0.2408  0.2452
16092SOL    HW249718   5.316   6.787   9.149  1.2002  0.4142 -0.5455
16093SOL     OW49719   1.282   4.079   3.335  0.2042  0.1268 -0.2846
16093SOL    HW149720   1.323   4.083   3.422  0.4692 -1.8343 -0.2745
16093SOL    HW249721   1.273   3.986   3.317 -0.6152  0.4992 -2.0326
16094SOL     OW49722   3.612   3.667  10.480  0.4952  0.3182 -0.0148
16094SOL    HW149723   3.536   3.610  10.490  1.2700 -0.6136  0.8174
16094SOL    HW249724   3.626   3.673  10.386 -0.9045  0.9463 -0.2102
16095SOL     OW49725   4.375   0.797  11.780  0.0322  0.2062 -0.4938
16095SOL    HW149726   4.399   0.834  11.696  0.0800  1.3874  0.0234
16095SOL    HW249727   4.339   0.710  11.759  3.1060 -0.9507 -1.4277
16096SOL     OW49728   3.567   6.126   5.284  0.0760  0.3500  0.0800
16096SOL    HW149729   3.497   6.157   5.342 -0.3989  0.5492 -0.5820
16096SOL    HW249730   3.588   6.202   5.230 -0.1389 -0.0818 -0.6309
16097SOL     OW49731   4.442   2.419   9.488 -0.2700 -0.4352  0.0838
16097SOL    HW149732   4.439   2.323   9.496 -2.4821 -0.6228 -1.8349
16097SOL    HW249733   4.425   2.451   9.577  1.0091 -1.7686  0.8575
16098SOL     OW49734   5.697   3.343   8.096  0.1337  0.1170  0.0318
16098SOL    HW149735   5.743   3.400   8.158  0.0792  0.3193 -0.1163
16098SOL    HW249736   5.754   3.339   8.020 -0.2872  0.7104 -0.3232
16099SOL     OW49737   4.276   3.960   8.125  0.2169  0.1086 -0.3687
16099SOL    HW149738   4.201   3.965   8.065  0.1538  0.6110 -0.2494
16099SOL    HW249739   4.266   4.035   8.183  0.7356  0.0960 -0.2568
16100SOL     OW49740   2.044   0.817   8.995  0.4936 -0.1231  0.1133
16100SOL    HW149741   2.005   0.732   8.973  0.3945 -0.6882  2.2324
16100SOL    HW249742   1.981   0.857   9.055  1.2786  0.7619  0.3632
16101SOL     OW49743   2.336   1.607   2.916  0.2200  0.1108 -0.4559
16101SOL    HW149744   2.389   1.529   2.899  0.2530  0.2713 -1.1362
16101SOL    HW249745   2.250   1.572   2.939  0.0687 -0.1368 -1.3327
16102SOL     OW49746   6.709   2.757   0.834 -0.1365  0.5992  0.0332
16102SOL    HW149747   6.790   2.757   0.783 -0.3207  0.7731 -0.2629
16102SOL    HW249748   6.657   2.687   0.795  0.2829 -0.2113  0.8924
16103SOL     OW49749   4.547   3.983   0.945 -0.3302  0.6581 -0.3397
16103SOL    HW149750   4.589   4.045   0.885 -0.1252  0.5206 -0.3364
16103SOL    HW249751   4.455   3.982   0.916 -0.0679 -0.0179 -1.1734
16104SOL     OW49752   5.766   5.266   4.330  0.0835 -0.5376  0.2328
16104SOL    HW149753   5.763   5.171   4.339  3.0755 -0.7237  0.3195
16104SOL    HW249754   5.759   5.299   4.420 -3.6234 -0.4020  0.0448
16105SOL     OW49755   2.414   0.835   0.086 -0.2427 -0.1332 -0.0565
16105SOL    HW149756   2.486   0.782   0.121  1.3752  1.3579 -1.0310
16105SOL    HW249757   2.335   0.789   0.116  1.0558 -0.8850  2.4944
16106SOL     OW49758   5.418   6.697  11.854  0.0821  0.0435 -0.0493
16106SOL    HW149759   5.466   6.708  11.772 -1.3686 -3.8003 -1.6620
16106SOL    HW249760   5.331   6.733  11.836 -0.7137 -2.1225 -0.8695
16107SOL     OW49761   4.427   4.344  11.214  0.3547  0.4228 -0.4968
16107SOL    HW149762   4.512   4.302  11.202  0.7641  1.2722 -0.5705
16107SOL    HW249763   4.425   4.416  11.152 -0.3226  0.5639 -0.3302
16108SOL     OW49764   0.124   6.759   8.503 -0.6934 -0.0141  0.3067
16108SOL    HW149765   0.062   6.815   8.457  1.4501  0.1685 -2.6705
16108SOL    HW249766   0.170   6.818   8.563  0.3286  1.1572 -1.5249
16109SOL     OW49767   5.379   7.170   6.815  0.1372 -0.1350  0.5257
16109SOL    HW149768   5.297   7.216   6.795 -0.0727 -0.8681 -0.3340
16109SOL    HW249769   5.447   7.234   6.795 -0.1691 -0.0534 -0.2958
16110SOL     OW49770   6.778   3.025   4.127 -0.0273 -0.4099 -0.1200
16110SOL    HW149771   6.814   3.052   4.043 -1.4339  0.4439 -0.4779
16110SOL    HW249772   6.848   2.976   4.169  0.8133 -0.5500 -1.6447
16111SOL     OW49773   1.717   3.496   2.950  0.3358  0.4096 -0.1475
16111SOL    HW149774   1.734   3.590   2.954  0.6153  0.3740 -0.4013
16111SOL    HW249775   1.683   3.473   3.036 -1.0049  0.9862 -0.4909
16112SOL     OW49776   3.290   3.385   7.782 -0.0378 -0.5591 -0.2969
16112SOL    HW149777   3.298   3.357   7.873 -2.0025  0.0522  0.1260
16112SOL    HW249778   3.279   3.480   7.787  1.0286 -0.3626 -1.2740
16113SOL     OW49779   6.108   4.918   9.640  0.5177 -0.5998  0.2091
16113SOL    HW149780   6.184   4.871   9.673  0.6670 -0.7489 -0.3388
16113SOL    HW249781   6.137   4.958   9.558 -0.2406 -1.4447 -0.5086
16114SOL     OW49782   3.305   3.032   1.558 -0.6544 -0.0369 -0.4302
16114SOL    HW149783   3.383   3.085   1.543 -1.4239  0.9639 -0.9995
16114SOL    HW249784   3.265   3.070   1.636 -0.4175 -0.7474  0.0465
16115SOL     OW49785   4.955   7.691   8.698  0.3588  0.0641 -0.3539
16115SOL    HW149786   4.911   7.737   8.626 -2.2256  1.4326  1.9375
16115SOL    HW249787   4.885   7.653   8.750  2.2490 -3.2200  0.1040
16116SOL     OW49788   4.994   4.492   1.443  0.1432 -0.6708 -0.0880
16116SOL    HW149789   5.023   4.407   1.475  0.8223 -0.0720  0.9289
16116SOL    HW249790   4.898   4.486   1.445  0.1805 -1.6816 -0.8011
16117SOL     OW49791   5.096   7.097   1.599  0.0297  0.4294  0.2612
16117SOL    HW149792   5.060   7.050   1.523  0.1768  1.9993 -0.8413
16117SOL    HW249793   5.024   7.101   1.661  0.0384 -1.2748  0.4215
16118SOL     OW49794   2.956   2.252  11.947  0.0705 -0.0487  0.2799
16118SOL    HW149795   2.959   2.264  12.042  0.5267 -1.4147  0.4577
16118SOL    HW249796   2.978   2.338  11.911 -1.0046  0.7224  1.3860
16119SOL     OW49797   3.342   7.359   4.951  0.0448  0.4317 -0.1249
16119SOL    HW149798   3.409   7.309   4.905 -0.7178  0.9630 -1.9391
16119SOL    HW249799   3.274   7.375   4.884 -0.7593  1.9489  0.9782
16120SOL     OW49800   6.939   3.658   9.557 -0.1485 -0.0676 -0.1431
16120SOL    HW149801   6.982   3.597   9.498 -0.2339 -1.6525  1.3434
16120SOL    HW249802   6.847   3.656   9.531 -0.4623 -1.9174  0.8914
16121SOL     OW49803   1.040   3.298   4.989  0.2544 -0.1915 -0.5003
16121SOL    HW149804   1.018   3.389   4.970 -0.0006 -0.0738  0.2910
16121SOL    HW249805   1.098   3.271   4.918  2.8663  1.5610  0.8280
16122SOL     OW49806   0.952   5.936   7.397 -0.0569  0.0314  0.0491
16122SOL    HW149807   0.909   6.007   7.444  0.2027 -1.6934  3.1959
16122SOL    HW249808   1.045   5.956   7.403 -0.0658  0.2488 -0.5285
16123SOL     OW49809   3.996   0.522   0.535  0.3569 -0.2960 -0.5211
16123SOL    HW149810   4.002   0.492   0.445  0.0669 -0.2020 -0.5736
16123SOL    HW249811   3.936   0.461   0.577  0.8446 -0.6128 -0.2716
16124SOL     OW49812   6.343   7.632  11.907 -0.3096  0.2619  0.2080
16124SOL    HW149813   6.390   7.570  11.964  0.0534 -0.5501 -0.9213
16124SOL    HW249814   6.367   7.718  11.940  1.6962 -0.1415 -0.0803
16125SOL     OW49815   5.502   2.085   6.788 -0.3668 -0.2809  0.1155
16125SOL    HW149816   5.466   2.034   6.715  0.7385  0.5639 -1.0537
16125SOL    HW249817   5.513   2.173   6.753  1.7183 -0.2333  0.7695
16126SOL     OW49818   0.280   6.734  10.163  0.6634  0.0323  0.0759
16126SOL    HW149819   0.253   6.643  10.164  0.8747 -0.0293  0.4039
16126SOL    HW249820   0.354   6.738  10.224  1.0099  0.3145 -0.3534
16127SOL     OW49821   1.923   7.103   1.935  0.2087 -0.3700  0.4235
16127SOL    HW149822   1.942   7.146   1.851  0.1681 -0.4961  0.3502
16127SOL    HW249823   1.890   7.173   1.991 -0.4234 -0.4221  0.1179
16128SOL     OW49824   1.669   4.815   4.620  0.1742  0.8307 -0.1640
16128SOL    HW149825   1.689   4.773   4.704 -1.6893 -0.6695 -0.3819
16128SOL    HW249826   1.711   4.758   4.554 -2.9762 -1.3531 -0.5105
16129SOL     OW49827   3.597   6.210  10.086 -0.2352 -0.5469 -0.4848
16129SOL    HW149828   3.517   6.252  10.054  0.7339  0.9711 -0.9755
16129SOL    HW249829   3.581   6.116  10.073 -2.2274 -0.3445  0.1170
16130SOL     OW49830   6.759   3.439   6.076  0.4162  0.5940  0.0978
16130SOL    HW149831   6.784   3.350   6.100 -2.0544  0.2568  1.8809
16130SOL    HW249832   6.704   3.429   5.998 -1.1455  0.2891  1.1794
16131SOL     OW49833   7.303   0.935   3.943 -0.1621  0.2590 -0.0719
16131SOL    HW149834   7.386   0.954   3.900  0.1113  0.9630  0.7431
16131SOL    HW249835   7.301   0.994   4.018 -1.2421 -0.0019  0.1152
16132SOL     OW49836   5.047   7.319   1.308 -0.4263 -0.1239 -0.7021
16132SOL    HW149837   5.129   7.323   1.357 -0.8306  0.4086 -0.0547
16132SOL    HW249838   4.999   7.397   1.335 -0.0562  1.0077 -3.0283
16133SOL     OW49839   3.003   3.231   2.404 -0.0515 -0.1856  0.3024
16133SOL    HW149840   3.065   3.159   2.402 -0.9379 -1.0017  1.1396
16133SOL    HW249841   3.040   3.294   2.466  0.7680  0.1436 -0.5015
16134SOL     OW49842   1.031   3.094   2.730  0.0165 -0.0955 -0.4915
16134SOL    HW149843   1.115   3.125   2.695 -1.2280  1.9374 -1.9038
16134SOL    HW249844   1.009   3.019   2.676  0.2923  0.2119 -1.0398
16135SOL     OW49845   2.787   7.150   8.847 -0.0678 -0.8192  0.0327
16135SOL    HW149846   2.881   7.145   8.828 -0.6617 -0.9780 -3.4218
16135SOL    HW249847   2.765   7.063   8.880  0.9702 -0.7572  0.9579
16136SOL     OW49848   1.078   2.977  12.067  0.2265 -0.0636 -0.3030
16136SOL    HW149849   1.002   2.996  12.122 -0.5347 -1.9576 -0.6396
16136SOL    HW249850   1.148   2.959  12.130 -0.2115 -0.5977  0.0437
16137SOL     OW49851   4.691   5.325   3.562 -0.4034 -0.3044  0.8960
16137SOL    HW149852   4.613   5.370   3.527  0.9326  3.5911  2.3826
16137SOL    HW249853   4.749   5.316   3.487 -0.4117  1.2528  0.6791
16138SOL     OW49854   4.984   6.266  10.042  0.0145  0.5724  0.3421
16138SOL    HW149855   5.038   6.338  10.011  0.9775 -0.1740  0.2024
16138SOL    HW249856   4.922   6.306  10.102  0.7164  1.4734  0.4880
16139SOL     OW49857   2.314   7.902   9.082 -0.3205  0.2598  0.5139
16139SOL    HW149858   2.336   7.973   9.142  0.6609  0.2040  0.2371
16139SOL    HW249859   2.273   7.945   9.007 -0.3865  0.4568  0.6627
16140SOL     OW49860   2.147   0.157   7.465  0.4359  0.0698 -0.0083
16140SOL    HW149861   2.106   0.123   7.386 -0.1153  2.8878 -1.0547
16140SOL    HW249862   2.103   0.113   7.537 -2.2630  0.6665 -1.1923
16141SOL     OW49863   1.315   6.384   8.062  0.2196 -0.5932  0.7942
16141SOL    HW149864   1.283   6.314   8.120  0.2300 -0.2021  1.2792
16141SOL    HW249865   1.406   6.362   8.046  0.8083  0.3218  2.5412
16142SOL     OW49866   6.589   2.264   3.618  0.3686  0.2410 -0.1875
16142SOL    HW149867   6.602   2.358   3.606  1.2066  0.1249 -0.1940
16142SOL    HW249868   6.569   2.254   3.712 -1.4408  0.6057 -0.5002
16143SOL     OW49869   3.764   2.250   4.301  0.3205 -0.2711 -0.0947
16143SOL    HW149870   3.850   2.221   4.271  0.5379  0.1903  0.0653
16143SOL    HW249871   3.779   2.338   4.336 -0.6088  0.7495 -2.0982
16144SOL     OW49872   7.098   4.230   0.076  0.5575  0.7232 -0.0226
16144SOL    HW149873   7.065   4.169   0.142 -3.1441  2.0911 -0.3852
16144SOL    HW249874   7.135   4.302   0.127  2.2144 -0.3773  0.4170
16145SOL     OW49875   1.198   1.803   8.753  0.1089  0.2955  0.1625
16145SOL    HW149876   1.126   1.771   8.807 -0.1764  0.9556  0.1780
16145SOL    HW249877   1.250   1.725   8.735 -0.2195 -0.0695  0.7410
16146SOL     OW49878   1.134   7.613   0.631  0.2279 -0.0079  0.3001
16146SOL    HW149879   1.161   7.524   0.608 -0.9077 -0.4189  0.5127
16146SOL    HW249880   1.039   7.611   0.627  0.1343  0.8644  1.5727
16147SOL     OW49881   4.396   7.333   4.500 -0.0261 -0.0702 -0.3427
16147SOL    HW149882   4.325   7.319   4.437 -2.0642  2.1875  1.2787
16147SOL    HW249883   4.419   7.426   4.491 -0.6570  0.4356  2.4256
16148SOL     OW49884   0.449   2.708  11.223 -0.1674  0.6218  0.3609
16148SOL    HW149885   0.523   2.648  11.220 -1.2757 -0.7880  0.0202
16148SOL    HW249886   0.478   2.779  11.281  1.1683 -0.2556  0.8161
16149SOL     OW49887   1.150   4.414   7.796 -0.3337  0.5750 -0.0262
16149SOL    HW149888   1.165   4.403   7.702  1.6360  0.5121  0.2590
16149SOL    HW249889   1.118   4.503   7.805  2.3549  1.6692 -0.5113
16150SOL     OW49890   1.147   7.387   3.763 -0.3085  0.3474 -1.1181
16150SOL    HW149891   1.129   7.359   3.853  1.5310 -0.4965 -0.9798
16150SOL    HW249892   1.093   7.328   3.709 -2.8777  2.0349 -0.6103
16151SOL     OW49893   2.007   2.642  11.238 -0.2128  0.0543 -0.3930
16151SOL    HW149894   1.976   2.568  11.186 -0.9839 -2.2351  3.0021
16151SOL    HW249895   1.927   2.690  11.260 -0.0841  0.1352 -0.1015
16152SOL     OW49896   3.256   0.442   3.415  0.1224  0.1770 -0.1110
16152SOL    HW149897   3.215   0.383   3.352 -0.4871  0.4326  0.0344
16152SOL    HW249898   3.222   0.529   3.392 -1.1910  0.1049  1.4043
16153SOL     OW49899   1.855   5.412   9.928 -0.1183  0.1040 -0.2025
16153SOL    HW149900   1.770   5.428   9.970 -0.0349  1.4876 -0.5022
16153SOL    HW249901   1.865   5.317   9.930 -0.5556  0.0369  2.0671
16154SOL     OW49902   5.196   0.544   1.934  0.2689  0.1282  0.0607
16154SOL    HW149903   5.149   0.618   1.895  0.1569  0.3025  0.5291
16154SOL    HW249904   5.227   0.576   2.018  2.1271  0.3622 -0.6507
16155SOL     OW49905   0.748   3.102  11.541  0.0029 -0.0151 -0.4597
16155SOL    HW149906   0.743   3.071  11.450  1.7172 -0.2792 -0.5064
16155SOL    HW249907   0.703   3.186  11.540 -1.6306 -0.8547 -1.1278
16156SOL     OW49908   1.149   6.839   2.017  0.3095 -0.0895 -0.1825
16156SOL    HW149909   1.188   6.923   1.992 -1.1548  0.4538 -0.7231
16156SOL    HW249910   1.055   6.855   2.017 -0.0672 -1.9583 -1.1771
16157SOL     OW49911   0.651   2.905  11.721  0.1318  0.1799  0.3900
16157SOL    HW149912   0.633   2.819  11.682  1.2611 -0.2909  0.8584
16157SOL    HW249913   0.680   2.958  11.647  0.0970 -0.0481  0.2100
16158SOL     OW49914   5.383   6.619   9.258 -1.1002 -0.3306  0.2513
16158SOL    HW149915   5.445   6.561   9.214  0.4931 -0.2265  2.1891
16158SOL    HW249916   5.405   6.609   9.351 -0.6758  3.4196  0.6853
16159SOL     OW49917   7.380   6.616  10.443  0.5165 -0.1821 -0.1839
16159SOL    HW149918   7.425   6.556  10.384  0.0154 -1.6260  0.8377
16159SOL    HW249919   7.309   6.654  10.391  1.2926  0.1254 -1.0511
16160SOL     OW49920   5.466   6.080   9.705 -0.0263 -0.5852 -0.0513
16160SOL    HW149921   5.372   6.077   9.684  0.2429 -0.6491 -1.3760
16160SOL    HW249922   5.487   5.990   9.732 -0.2211 -0.7333 -0.3836
16161SOL     OW49923   6.663   0.735   4.266  0.5512 -0.1423 -0.0590
16161SOL    HW149924   6.635   0.812   4.216  0.2887  1.5498  2.5073
16161SOL    HW249925   6.756   0.751   4.283  1.2987 -1.9365 -1.9714
16162SOL     OW49926   2.201   6.225   4.845  0.4307  0.0139  0.2417
16162SOL    HW149927   2.274   6.285   4.830 -0.5817  1.0544 -0.7562
16162SOL    HW249928   2.124   6.273   4.814 -0.5931 -1.2954  0.6703
16163SOL     OW49929   0.457   7.375   2.926  0.0424 -0.3203  0.1044
16163SOL    HW149930   0.491   7.392   2.838  0.2190  0.2987  0.2875
16163SOL    HW249931   0.515   7.425   2.984 -1.0593  0.5955  0.4481
16164SOL     OW49932   0.203   2.118   2.234 -0.1816 -0.5420 -0.4306
16164SOL    HW149933   0.295   2.139   2.251 -0.2090 -1.3889  0.9038
16164SOL    HW249934   0.182   2.166   2.153  0.6034  1.9655  0.7596
16165SOL     OW49935   0.081   6.728   2.847  0.5823 -0.0928  0.2185
16165SOL    HW149936   0.163   6.706   2.802  0.1677 -0.1121 -0.5514
16165SOL    HW249937   0.019   6.744   2.776 -0.4090 -1.2784  0.7853
16166SOL     OW49938   1.704   5.424   7.002 -0.3301 -0.2690 -0.3186
16166SOL    HW149939   1.730   5.410   7.093 -1.1979  0.2437  0.0294
16166SOL    HW249940   1.678   5.337   6.971 -1.6268 -0.2039  0.4730
16167SOL     OW49941   6.763   0.520  11.124  0.1591  0.1929 -0.1111
16167SOL    HW149942   6.790   0.569  11.202 -0.4250 -0.2513  0.3686
16167SOL    HW249943   6.713   0.584  11.072 -0.4573  0.1475  0.4324
16168SOL     OW49944   2.330   5.677  11.274  0.2723  0.1265 -0.4504
16168SOL    HW149945   2.264   5.621  11.314  1.3539 -0.4916  0.5254
16168SOL    HW249946   2.385   5.707  11.347  3.1057 -2.0942 -1.4745
16169SOL     OW49947   2.205   3.907   1.700  0.4333  0.0836  0.4716
16169SOL    HW149948   2.196   4.002   1.708  0.1129  0.2724 -1.5125
16169SOL    HW249949   2.212   3.892   1.605  2.9138 -1.6753  0.8321
16170SOL     OW49950   3.764   1.561   5.791 -0.3821  0.3501 -0.1798
16170SOL    HW149951   3.675   1.527   5.777 -0.6879  0.8184  0.5873
16170SOL    HW249952   3.752   1.638   5.846  0.5907 -0.1855  0.8322
16171SOL     OW49953   3.482   1.100   0.969  0.5494  0.2007  0.1882
16171SOL    HW149954   3.450   1.114   0.880  0.1958  0.8879  0.4189
16171SOL    HW249955   3.469   1.006   0.984  0.2965  0.1405 -0.3583
16172SOL     OW49956   2.225   3.291   3.990  0.0837  0.1483  0.0541
16172SOL    HW149957   2.308   3.318   3.950 -0.7667 -0.9664 -2.6947
16172SOL    HW249958   2.178   3.372   4.007  0.9881  0.7107 -0.0777
16173SOL     OW49959   7.112   4.458   3.847 -0.5935  0.0901  0.0550
16173SOL    HW149960   7.124   4.509   3.927  1.0418 -0.5779  0.2780
16173SOL    HW249961   7.191   4.476   3.796 -1.4938  0.3036 -1.3141
16174SOL     OW49962   6.321   5.126   7.020 -0.0312 -0.3101  0.0084
16174SOL    HW149963   6.259   5.146   6.949  0.4041  3.1683  0.4304
16174SOL    HW249964   6.399   5.095   6.975 -0.5390 -0.3217 -0.8956
16175SOL     OW49965   7.916   2.219   1.575 -0.3183  0.1633 -0.1437
16175SOL    HW149966   8.006   2.233   1.546  0.0996 -0.9182  0.5661
16175SOL    HW249967   7.919   2.231   1.670 -1.4537  2.6169 -0.3335
16176SOL     OW49968   7.892   6.459   6.562  0.1770  0.4954 -0.1664
16176SOL    HW149969   7.838   6.418   6.629 -0.3268  2.2559  0.5569
16176SOL    HW249970   7.968   6.493   6.609  1.5716 -1.2039 -1.0453
16177SOL     OW49971   3.160   7.789   8.836 -0.2205 -0.1057 -0.4900
16177SOL    HW149972   3.121   7.760   8.754 -0.0559 -0.3887 -0.4697
16177SOL    HW249973   3.189   7.709   8.879  1.5394  0.1713 -1.0774
16178SOL     OW49974   3.284   3.041   0.542 -0.2422  0.0926 -0.1725
16178SOL    HW149975   3.338   2.990   0.483  2.0588  1.7046  0.4005
16178SOL    HW249976   3.264   3.122   0.494  0.2897  0.7244  0.6391
16179SOL     OW49977   7.061   6.866   1.341 -0.3626 -0.4658  0.3285
16179SOL    HW149978   7.128   6.857   1.408 -1.1026 -1.3160  0.9831
16179SOL    HW249979   7.080   6.796   1.278 -0.9088 -1.0300  0.7761
16180SOL     OW49980   0.917   3.392  10.970  0.2114 -0.4030  0.0673
16180SOL    HW149981   0.897   3.312  11.018 -1.5425 -0.5385 -0.8125
16180SOL    HW249982   0.919   3.365  10.878 -2.1059  0.7876 -0.4053
16181SOL     OW49983   0.535   0.729   1.973  0.5983  0.6414 -0.1869
16181SOL    HW149984   0.563   0.817   1.946 -1.2233  0.6274 -2.4336
16181SOL    HW249985   0.607   0.672   1.945  1.3033  1.2903  0.2713
16182SOL     OW49986   7.378   7.173   3.356  0.2898  0.6236 -0.1893
16182SOL    HW149987   7.451   7.128   3.400 -1.0897  0.6192  2.2741
16182SOL    HW249988   7.317   7.102   3.334  1.8485  0.3218 -4.2854
16183SOL     OW49989   0.522   4.329   5.320  0.4706  0.0874 -0.1812
16183SOL    HW149990   0.533   4.318   5.226  1.4859 -0.8340  0.0206
16183SOL    HW249991   0.468   4.255   5.347  1.2645 -0.3878  0.1366
16184SOL     OW49992   0.504   3.262   1.153  0.1880  0.2689 -0.1482
16184SOL    HW149993   0.546   3.176   1.164  2.6427  1.3068 -0.6998
16184SOL    HW249994   0.479   3.288   1.241 -1.5441 -1.4132 -0.0872
16185SOL     OW49995   1.069   1.442   5.106  0.0977  0.0315  0.2077
16185SOL    HW149996   1.058   1.347   5.097 -1.1180  0.1715  0.0013
16185SOL    HW249997   0.988   1.471   5.149 -0.2789  1.1759 -1.2019
16186SOL     OW49998   2.943   5.995  11.886 -0.2503 -0.0658 -0.3101
16186SOL    HW149999   2.883   5.921  11.886  2.3145 -2.3310 -1.0218
16186SOL    HW250000   2.936   6.032  11.973 -1.9688 -0.8090 -0.0941
16187SOL     OW50001   4.866   7.005   4.346  0.1983 -0.2852  0.3174
16187SOL    HW150002   4.854   6.972   4.257 -0.3651 -0.3744  0.4232
16187SOL    HW250003   4.903   7.092   4.335  0.7996 -0.5696  0.0133
16188SOL     OW50004   4.519   4.234   2.569 -0.4467 -0.0264 -0.1274
16188SOL    HW150005   4.572   4.313   2.563 -0.1002 -0.3732 -2.3238
16188SOL    HW250006   4.523   4.209   2.662  0.3873  1.8462  0.3794
16189SOL     OW50007   5.351   5.797   7.328  0.1672  0.3750  0.6202
16189SOL    HW150008   5.363   5.703   7.344  0.2003  0.2750  0.0222
16189SOL    HW250009   5.440   5.831   7.322  0.1554  0.4676  0.9512
16190SOL     OW50010   5.483   3.006   8.839 -0.2656  0.2130 -0.0341
16190SOL    HW150011   5.553   2.983   8.901 -1.5042 -2.0086  0.6819
16190SOL    HW250012   5.467   3.099   8.854  1.3494  0.3669  1.0016
16191SOL     OW50013   4.909   5.310   5.586  0.2087  0.5182  0.1724
16191SOL    HW150014   4.855   5.240   5.549  2.0550 -1.0511  0.3120
16191SOL    HW250015   4.996   5.294   5.551  1.0503  1.7123  1.6334
16192SOL     OW50016   4.626   4.184   9.284  0.1176 -0.5907 -0.5795
16192SOL    HW150017   4.617   4.187   9.379 -1.6556  0.7155 -0.7346
16192SOL    HW250018   4.608   4.093   9.260 -1.0574 -0.5758  0.2118
16193SOL     OW50019   5.980   0.695   0.403  0.6131  0.1068 -0.4824
16193SOL    HW150020   6.068   0.666   0.428 -0.1706 -2.6913 -0.6140
16193SOL    HW250021   5.932   0.614   0.387 -1.6010  1.5829 -1.8679
16194SOL     OW50022   4.937   2.441   4.939  0.0302 -0.6339 -0.2731
16194SOL    HW150023   5.007   2.489   4.894  1.7721 -0.6803  2.1617
16194SOL    HW250024   4.886   2.509   4.983 -0.5284 -0.7258 -0.7555
16195SOL     OW50025   7.243   7.380   1.974 -0.3356  0.3077 -0.1560
16195SOL    HW150026   7.290   7.311   2.021 -1.1249 -1.2091 -1.4832
16195SOL    HW250027   7.191   7.424   2.042 -0.5637 -1.0485  0.5873
16196SOL     OW50028   0.632   6.213   7.742  0.0095  0.0558  0.0572
16196SOL    HW150029   0.689   6.164   7.801  0.7916 -0.4252 -1.0658
16196SOL    HW250030   0.574   6.261   7.800  0.2437 -0.9952  1.2105
16197SOL     OW50031   4.900   1.063   5.236  0.0890 -0.1723 -0.2926
16197SOL    HW150032   4.893   1.157   5.219 -0.3360  0.0143  0.8402
16197SOL    HW250033   4.811   1.030   5.226  0.1476 -0.3637 -0.1908
16198SOL     OW50034   3.912   5.744  10.022  0.8977 -0.4013 -0.5736
16198SOL    HW150035   3.907   5.734  10.117  0.4189 -1.1943 -0.6717
16198SOL    HW250036   3.822   5.755   9.993  0.9685 -0.9074 -1.0053
16199SOL     OW50037   3.087   5.279   9.915  0.7970  0.3359  0.3538
16199SOL    HW150038   3.028   5.331   9.970  0.0917 -0.0486 -0.0181
16199SOL    HW250039   3.174   5.314   9.933  0.3384  1.7043  0.0521
16200SOL     OW50040   3.240   5.451   0.712 -0.4604 -0.0358  0.2554
16200SOL    HW150041   3.240   5.508   0.788  1.0438  0.6857 -0.2601
16200SOL    HW250042   3.222   5.364   0.748  2.1805 -0.0571  1.7299
16201SOL     OW50043   5.679   2.848   1.087  0.0765 -0.6085  0.1122
16201SOL    HW150044   5.644   2.841   1.175  1.4672 -0.6414  0.6839
16201SOL    HW250045   5.713   2.937   1.080  0.3547 -0.7342 -0.2354
16202SOL     OW50046   0.913   2.884   4.970  0.2004 -0.0453 -0.0056
16202SOL    HW150047   1.002   2.917   4.987  0.0489  0.1652  0.4050
16202SOL    HW250048   0.900   2.816   5.036 -0.3232  0.6436  0.6171
16203SOL     OW50049   1.354   7.550   8.552  0.4653  0.2734 -0.6635
16203SOL    HW150050   1.271   7.512   8.521  1.7653 -0.7629 -3.1257
16203SOL    HW250051   1.391   7.593   8.475  2.8724 -0.4937 -0.0251
16204SOL     OW50052   6.378   7.296   5.414 -0.5380 -0.1880 -0.7531
16204SOL    HW150053   6.288   7.284   5.383 -0.8487  1.0861 -0.4214
16204SOL    HW250054   6.377   7.264   5.504 -0.6789 -0.1494 -0.7398
16205SOL     OW50055   1.748   2.749   7.046 -0.0193  0.4683 -0.3811
16205SOL    HW150056   1.745   2.681   7.113 -2.1795  0.3032 -0.5854
16205SOL    HW250057   1.788   2.706   6.970  1.4717  0.3626  0.4063
16206SOL     OW50058   1.491   1.427   0.298  0.5009  0.4081 -0.1757
16206SOL    HW150059   1.472   1.357   0.360  0.6710 -0.1300 -0.7221
16206SOL    HW250060   1.533   1.495   0.351  1.3844 -0.3729  0.1551
16207SOL     OW50061   4.113   4.942   3.130  0.0100  0.1892  0.0509
16207SOL    HW150062   4.165   4.880   3.182  0.6096  1.8427  1.5258
16207SOL    HW250063   4.022   4.917   3.148  0.2215  0.3687  1.4707
16208SOL     OW50064   1.760   0.349   7.821 -0.6679 -0.8270 -0.2966
16208SOL    HW150065   1.742   0.335   7.914 -0.5793 -0.4840 -0.2256
16208SOL    HW250066   1.682   0.317   7.776 -0.7700 -0.8619 -0.0941
16209SOL     OW50067   4.004   7.680   8.308 -0.1806  0.2587  0.6249
16209SOL    HW150068   4.032   7.769   8.285 -0.3627  0.5580  1.4903
16209SOL    HW250069   3.942   7.655   8.240  0.9904  0.2020 -0.4482
16210SOL     OW50070   4.337   7.193   7.114  0.8803  0.2330  0.3693
16210SOL    HW150071   4.396   7.264   7.140  0.9766  0.1076  0.4979
16210SOL    HW250072   4.349   7.126   7.182  1.4503 -0.2788 -0.2160
16211SOL     OW50073   2.026   2.212   0.203  0.1622  1.1160  0.6779
16211SOL    HW150074   2.015   2.295   0.249  1.0191  1.1835  0.7638
16211SOL    HW250075   1.940   2.195   0.163 -0.1521  1.7965  1.0590
16212SOL     OW50076   7.466   5.725   7.986 -0.1128 -0.6673  0.0386
16212SOL    HW150077   7.550   5.771   7.995  1.4289 -3.1874 -0.4792
16212SOL    HW250078   7.452   5.685   8.072 -0.3935 -0.8709 -0.1018
16213SOL     OW50079   4.161   3.898   1.384 -0.1417 -0.2106 -0.0330
16213SOL    HW150080   4.163   3.806   1.412  1.0843 -0.5345 -1.0792
16213SOL    HW250081   4.070   3.914   1.359  0.2347 -2.3163 -3.3927
16214SOL     OW50082   2.706   4.507   2.876 -0.1523  0.1999  0.0827
16214SOL    HW150083   2.749   4.593   2.882  1.1381 -0.2403 -1.8610
16214SOL    HW250084   2.643   4.507   2.948  2.4767  1.2559  2.5898
16215SOL     OW50085   6.867   5.417  11.677  0.1018  0.3943  0.6617
16215SOL    HW150086   6.835   5.461  11.598  1.2680  0.5557  0.2610
16215SOL    HW250087   6.884   5.489  11.739 -0.7324  0.2748  1.0455
16216SOL     OW50088   6.604   4.087   4.479  0.4981 -0.2319 -0.6513
16216SOL    HW150089   6.598   4.136   4.397  1.3049 -0.1046 -0.6454
16216SOL    HW250090   6.620   3.996   4.453  3.6920  0.2211 -0.6759
16217SOL     OW50091   5.840   0.468   0.459  0.0236  0.1651  0.2286
16217SOL    HW150092   5.874   0.415   0.388  0.1835  0.4439  0.0959
16217SOL    HW250093   5.804   0.405   0.522  0.6160 -0.1172  0.2819
16218SOL     OW50094   0.932   0.209  11.375  0.7919  0.0862  0.3311
16218SOL    HW150095   1.023   0.204  11.344  0.9683  5.0491 -0.8149
16218SOL    HW250096   0.881   0.224  11.296 -1.0195 -1.6900  1.0784
16219SOL     OW50097   1.072   0.625   6.216  0.5244  0.1206  0.0767
16219SOL    HW150098   0.987   0.594   6.185  0.0620  1.6706 -0.3167
16219SOL    HW250099   1.055   0.658   6.304  0.9686 -0.5474  0.4244
16220SOL     OW50100   2.906   3.071   2.047 -0.4974  0.2637  0.4194
16220SOL    HW150101   2.814   3.095   2.052 -0.3175  1.3603 -0.8836
16220SOL    HW250102   2.927   3.074   1.953  1.0448  0.8158  0.7406
16221SOL     OW50103   6.246   0.957   2.927  0.3138  0.6501  0.0815
16221SOL    HW150104   6.168   0.995   2.885  0.5024  0.0309 -0.8527
16221SOL    HW250105   6.304   1.032   2.942  0.0711  0.9450 -0.4062
16222SOL     OW50106   6.369   4.927   2.427 -0.8484  0.4189  0.1294
16222SOL    HW150107   6.413   5.007   2.455 -0.3815  0.1387  0.2058
16222SOL    HW250108   6.326   4.951   2.345  3.7573 -0.5345 -2.9584
16223SOL     OW50109   5.936   0.726   7.089 -0.5605  0.3027 -0.0180
16223SOL    HW150110   5.890   0.782   7.152  1.6143  0.7819  1.2651
16223SOL    HW250111   5.960   0.786   7.018 -1.3438  0.1922 -0.3783
16224SOL     OW50112   2.112   5.608   3.108  0.1712  0.5707  0.1501
16224SOL    HW150113   2.125   5.691   3.062 -0.6472  0.6913  0.1228
16224SOL    HW250114   2.183   5.604   3.171  1.6860  0.1246 -1.4987
16225SOL     OW50115   5.583   4.856   1.459  0.2578 -0.0916 -0.4148
16225SOL    HW150116   5.496   4.885   1.486  0.8221  1.1793  0.1535
16225SOL    HW250117   5.621   4.816   1.537 -0.0043 -1.1547 -0.8164
16226SOL     OW50118   4.717   3.881  11.115  0.0976  0.0078 -0.2755
16226SOL    HW150119   4.653   3.822  11.156 -0.6588 -0.1429 -1.6117
16226SOL    HW250120   4.679   3.901  11.030  1.7442  0.0894 -1.0230
16227SOL     OW50121   4.705   6.313   0.890 -0.2246  0.2068 -0.1416
16227SOL    HW150122   4.715   6.305   0.985  1.5811 -1.4306 -0.4099
16227SOL    HW250123   4.724   6.226   0.856  2.2154  1.3901 -2.1790
16228SOL     OW50124   7.427   2.608   4.527 -0.0729 -0.3784  0.0088
16228SOL    HW150125   7.352   2.550   4.518  1.5802 -2.3416 -2.3106
16228SOL    HW250126   7.449   2.633   4.437  1.2041  1.3134  0.7292
16229SOL     OW50127   2.309   5.207   3.962 -1.0104  0.1314 -0.1851
16229SOL    HW150128   2.269   5.122   3.981  0.2095 -0.9895 -2.2906
16229SOL    HW250129   2.299   5.219   3.868 -1.1204  2.3435  0.0515
16230SOL     OW50130   5.491   5.917   3.023 -0.0540  0.2731  0.5233
16230SOL    HW150131   5.483   5.891   2.931 -2.6756 -0.9545  0.9875
16230SOL    HW250132   5.582   5.943   3.033  1.1651 -2.5751 -1.6856
16231SOL     OW50133   6.068   4.007   2.925  0.1359  0.1929 -0.1862
16231SOL    HW150134   6.079   3.925   2.974  2.0492 -0.0413 -0.8996
16231SOL    HW250135   5.979   4.002   2.891 -0.2265 -0.9972  0.8325
16232SOL     OW50136   5.420   2.237   2.934 -0.0118  0.1573 -0.1797
16232SOL    HW150137   5.369   2.311   2.902 -2.3708 -0.5315  1.6305
16232SOL    HW250138   5.366   2.160   2.912  1.4808 -0.8703 -0.3855
16233SOL     OW50139   3.472   6.790   9.410  0.1862  0.3026  0.3030
16233SOL    HW150140   3.506   6.879   9.418  1.1080 -0.1923  2.6412
16233SOL    HW250141   3.377   6.800   9.422  0.1628  1.0450 -0.3867
16234SOL     OW50142   6.245   2.470   2.142  0.3948  0.5623 -0.5267
16234SOL    HW150143   6.220   2.438   2.055 -1.1200 -0.1245  0.1165
16234SOL    HW250144   6.208   2.405   2.202  1.8570  0.7512  0.6268
16235SOL     OW50145   4.735   1.062   2.719 -0.3160 -0.0336  0.3641
16235SOL    HW150146   4.782   1.002   2.662 -2.2677  0.0252 -1.4524
16235SOL    HW250147   4.676   1.006   2.770  0.5872  0.0259  1.5099
16236SOL     OW50148   6.327   1.104  11.695  0.1414 -0.2101  0.1110
16236SOL    HW150149   6.277   1.183  11.715  0.5165 -0.0897  0.5900
16236SOL    HW250150   6.326   1.099  11.599  0.9520  0.9314  0.0237
16237SOL     OW50151   3.067   1.283   2.200  0.3866 -0.0083  0.4701
16237SOL    HW150152   3.092   1.309   2.112  0.0539  1.8160  0.8849
16237SOL    HW250153   3.104   1.195   2.210 -0.6134 -0.7687 -1.8876
16238SOL     OW50154   7.372   2.605   7.406 -0.3328 -0.2012 -0.1021
16238SOL    HW150155   7.423   2.685   7.420  1.5787 -1.5869  1.3976
16238SOL    HW250156   7.322   2.623   7.326 -1.0961  2.9891  0.9127
16239SOL     OW50157   5.738   6.888   0.496  0.0749  0.2196 -0.0309
16239SOL    HW150158   5.648   6.917   0.480 -0.2776 -0.2984  0.9425
16239SOL    HW250159   5.730   6.822   0.565  1.2348  0.4185  0.3154
16240SOL     OW50160   0.544   7.805   6.765 -0.0948  0.0446 -0.6132
16240SOL    HW150161   0.578   7.821   6.853 -1.4102 -0.2154 -0.0260
16240SOL    HW250162   0.451   7.827   6.772  0.0948  1.7061 -2.3934
16241SOL     OW50163   1.690   1.628   0.783 -0.4357 -1.0999  0.4072
16241SOL    HW150164   1.740   1.709   0.774  0.1583 -1.4808  0.2084
16241SOL    HW250165   1.614   1.652   0.836  0.6313 -0.7916  1.8677
16242SOL     OW50166   4.061   1.972   3.634  0.0584  0.0614  0.1825
16242SOL    HW150167   3.984   1.915   3.634  0.4901 -0.5271  0.1158
16242SOL    HW250168   4.031   2.052   3.591  0.1937 -1.1574 -2.4411
16243SOL     OW50169   5.719   3.096   3.164  0.3304 -0.2353 -0.3548
16243SOL    HW150170   5.718   3.165   3.098  0.3221 -2.2574 -2.6221
16243SOL    HW250171   5.747   3.018   3.116  0.1448 -1.8695  2.0304
16244SOL     OW50172   7.313   4.326   6.211  0.0987 -0.2009  0.1347
16244SOL    HW150173   7.286   4.291   6.295 -1.6651  1.1404  0.1795
16244SOL    HW250174   7.305   4.253   6.150 -2.1981 -0.2890  0.4657
16245SOL     OW50175   5.100   2.247  10.210  0.5249 -0.4288 -0.3263
16245SOL    HW150176   5.079   2.299  10.132  0.1643 -0.6559 -0.3825
16245SOL    HW250177   5.017   2.243  10.259  0.7803 -0.1808  0.1354
16246SOL     OW50178   6.718   0.121   3.406  0.3218  0.6556 -0.3906
16246SOL    HW150179   6.659   0.184   3.449 -2.4901 -0.2321 -2.6598
16246SOL    HW250180   6.716   0.044   3.464  2.1137  1.7761  1.3025
16247SOL     OW50181   7.299   6.475  11.032 -0.0474 -0.4919  0.8094
16247SOL    HW150182   7.261   6.409  10.974 -0.4756  0.3902  0.0499
16247SOL    HW250183   7.376   6.433  11.070  0.8806 -0.7571 -1.2379
16248SOL     OW50184   6.721   2.191   7.201  0.0675 -0.2930  0.1372
16248SOL    HW150185   6.813   2.168   7.187  0.8913  1.3261  2.4284
16248SOL    HW250186   6.705   2.264   7.141  0.0591 -0.9861 -0.7234
16249SOL     OW50187   6.211   3.146   1.069  0.4065  0.0539  0.2062
16249SOL    HW150188   6.142   3.141   1.004  0.7120  1.2383 -0.2250
16249SOL    HW250189   6.292   3.132   1.020  0.5745 -0.0083  0.4939
16250SOL     OW50190   4.007   7.742   2.009 -1.3354  0.7033 -0.2736
16250SOL    HW150191   4.091   7.741   1.962 -1.0066 -1.3001  0.2734
16250SOL    HW250192   3.986   7.835   2.018  1.4660  1.3427  0.6574
16251SOL     OW50193   0.348   3.662   4.329 -0.2586 -0.0588 -0.2730
16251SOL    HW150194   0.273   3.722   4.333 -0.7324 -0.6524 -0.1681
16251SOL    HW250195   0.333   3.610   4.251 -0.2594 -0.5730  0.0632
16252SOL     OW50196   2.708   1.049   5.724  0.0440  0.3150  0.0270
16252SOL    HW150197   2.713   1.049   5.820 -0.6069 -1.1804  0.0839
16252SOL    HW250198   2.616   1.033   5.705 -0.2226  2.5780 -0.8955
16253SOL     OW50199   2.001   5.263   1.589  0.0264  0.2710  0.4569
16253SOL    HW150200   1.978   5.229   1.502 -0.7062  1.4093  0.1835
16253SOL    HW250201   2.069   5.328   1.571  0.3622  0.0251  0.8174
16254SOL     OW50202   0.560   1.229   6.326 -0.3991  0.1484 -0.3569
16254SOL    HW150203   0.525   1.314   6.299 -0.6565  1.0166  2.3479
16254SOL    HW250204   0.652   1.246   6.344 -0.5109 -0.0724  0.4471
16255SOL     OW50205   3.690   3.042   1.130  0.1531 -0.1172  0.4928
16255SOL    HW150206   3.602   3.006   1.138 -0.7109  1.8103  0.2927
16255SOL    HW250207   3.747   2.966   1.123 -1.7010 -1.4501 -1.5882
16256SOL     OW50208   1.817   5.915   3.030  0.2295  0.6318 -0.6162
16256SOL    HW150209   1.726   5.919   3.061 -0.6486 -1.9724 -2.4920
16256SOL    HW250210   1.865   5.873   3.101 -0.5265 -0.0234 -0.4720
16257SOL     OW50211   4.586   0.728  11.947 -0.2560 -0.0861  0.1886
16257SOL    HW150212   4.516   0.669  11.920  1.6438 -1.3738 -2.3156
16257SOL    HW250213   4.661   0.671  11.963  1.0952  1.4872 -0.2794
16258SOL     OW50214   0.679   7.522   8.536  0.1080  1.1285  0.4080
16258SOL    HW150215   0.675   7.573   8.617 -0.4104  2.1102 -0.2077
16258SOL    HW250216   0.638   7.439   8.557 -0.1566  1.4327  1.1179
16259SOL     OW50217   1.405   5.349   1.903 -0.1842 -0.0592  0.4284
16259SOL    HW150218   1.469   5.322   1.968 -0.1768 -0.6691  0.1729
16259SOL    HW250219   1.353   5.271   1.886  0.3828 -0.1639 -0.9610
16260SOL     OW50220   1.708   5.028   4.479  0.7953 -0.2304 -0.3708
16260SOL    HW150221   1.704   4.952   4.537  2.4210  1.0454  1.5311
16260SOL    HW250222   1.701   5.104   4.538  0.3119  1.1344 -2.0847
16261SOL     OW50223   3.109   7.175   8.855  0.0276  0.1818  0.0558
16261SOL    HW150224   3.138   7.149   8.767  2.0660  2.6833 -0.1140
16261SOL    HW250225   3.177   7.141   8.913 -0.6452 -0.3341  0.5669
16262SOL     OW50226   7.537   7.408   1.366  0.5273 -0.3585 -0.0264
16262SOL    HW150227   7.542   7.405   1.271 -0.2063  0.1317 -0.0866
16262SOL    HW250228   7.514   7.498   1.387 -0.4906 -0.7359  0.5495
16263SOL     OW50229   6.868   4.545   4.972 -0.2377  0.4188 -0.1021
16263SOL    HW150230   6.934   4.490   4.930  0.5035  1.0968  0.1491
16263SOL    HW250231   6.918   4.612   5.019 -1.0691  0.3089  0.9971
16264SOL     OW50232   5.266   6.826   5.359  0.2703  0.2253 -0.3152
16264SOL    HW150233   5.354   6.861   5.350  0.5723 -0.3764  0.2202
16264SOL    HW250234   5.236   6.811   5.269  0.3137  1.3857 -0.5340
16265SOL     OW50235   1.831   7.377   7.075  0.1918 -0.3856 -0.1000
16265SOL    HW150236   1.909   7.342   7.119  1.0316 -0.0329 -1.2705
16265SOL    HW250237   1.812   7.312   7.007 -0.4012 -0.3385  0.0162
16266SOL     OW50238   1.295   3.906  10.860  0.3003 -0.7829 -0.7149
16266SOL    HW150239   1.206   3.885  10.886 -0.1849  0.3060 -1.4291
16266SOL    HW250240   1.314   3.848  10.787  0.6038 -1.7893  0.1298
16267SOL     OW50241   0.706   0.079   1.176  0.0896  0.4438  0.4906
16267SOL    HW150242   0.725   0.154   1.120 -0.5400  1.9619  2.2370
16267SOL    HW250243   0.625   0.043   1.142  1.1805 -0.4448 -1.3121
16268SOL     OW50244   7.486   5.677   8.251 -0.3796  0.1375  0.0757
16268SOL    HW150245   7.436   5.626   8.314  0.1641  0.1879  0.5572
16268SOL    HW250246   7.577   5.668   8.280 -0.0652 -0.2421 -0.9806
16269SOL     OW50247   0.574   4.447   2.931  0.1010  0.0117 -0.2109
16269SOL    HW150248   0.564   4.457   2.837  1.1123  0.3862 -0.2943
16269SOL    HW250249   0.663   4.414   2.943 -0.1630 -0.4379  0.5896
16270SOL     OW50250   3.496   2.431   5.465  0.2825 -0.2609 -0.0296
16270SOL    HW150251   3.490   2.443   5.370  0.2101 -0.2655 -0.0259
16270SOL    HW250252   3.586   2.456   5.487  0.6449 -1.3165 -0.2584
16271SOL     OW50253   7.595   3.046   3.335 -0.0277  0.3185  0.0130
16271SOL    HW150254   7.568   3.125   3.383 -0.1789  0.1963  0.1300
16271SOL    HW250255   7.623   2.985   3.403 -0.0012  0.2373 -0.0702
16272SOL     OW50256   6.694   1.280  12.254  0.0200 -0.0102  0.2756
16272SOL    HW150257   6.629   1.229  12.302 -0.4436  1.2602  1.0681
16272SOL    HW250258   6.643   1.338  12.199  0.5503 -1.2204 -1.5601
16273SOL     OW50259   3.625   5.529   7.015 -0.8261 -0.3442 -0.0873
16273SOL    HW150260   3.564   5.570   6.953  0.0709  1.1107 -0.0613
16273SOL    HW250261   3.655   5.601   7.070  1.1361 -0.9365 -0.2880
16274SOL     OW50262   1.306   3.207   4.089  0.3902 -0.8036  0.3314
16274SOL    HW150263   1.248   3.191   4.014  0.2425 -0.3825  0.3546
16274SOL    HW250264   1.383   3.249   4.051  0.1550 -0.2426  0.4591
16275SOL     OW50265   3.565   4.600   3.748 -0.5037  0.8519  0.1487
16275SOL    HW150266   3.593   4.510   3.762 -3.6940 -0.6537 -1.9507
16275SOL    HW250267   3.600   4.648   3.823 -0.6718 -2.5886  2.6578
16276SOL     OW50268   6.354   3.289   1.832 -0.4598  0.1975  0.3104
16276SOL    HW150269   6.410   3.324   1.902  0.6586 -1.9978  0.6008
16276SOL    HW250270   6.399   3.314   1.751  0.1736 -0.3012  0.5016
16277SOL     OW50271   1.812   4.536   0.820  0.2085 -0.0757  0.0130
16277SOL    HW150272   1.733   4.531   0.875 -0.0640  2.1903 -0.0616
16277SOL    HW250273   1.779   4.525   0.731 -0.7008  3.9726 -0.3633
16278SOL     OW50274   1.553   0.577   8.200  0.3213 -0.0420  0.1182
16278SOL    HW150275   1.473   0.591   8.149  0.1220 -1.0867  0.1158
16278SOL    HW250276   1.612   0.648   8.173 -0.1629  0.0243 -0.7962
16279SOL     OW50277   5.780   6.682   8.422 -0.1867 -0.0802  0.1445
16279SOL    HW150278   5.808   6.773   8.432  1.6481 -0.4229 -1.2914
16279SOL    HW250279   5.754   6.655   8.510 -0.2196  1.6460  0.7001
16280SOL     OW50280   3.012   2.550   0.706  0.2423  0.4816 -0.2856
16280SOL    HW150281   2.952   2.478   0.688 -0.5696  0.4872  2.0802
16280SOL    HW250282   2.984   2.584   0.791  2.8041  1.2952  0.3228
16281SOL     OW50283   3.247   3.525  11.293 -0.1960  0.4197 -0.0216
16281SOL    HW150284   3.164   3.485  11.321 -0.4362  0.6121 -0.4495
16281SOL    HW250285   3.252   3.506  11.199  1.0665 -1.0617  0.3090
16282SOL     OW50286   1.831   3.983   2.477 -0.4250 -0.4367 -0.6131
16282SOL    HW150287   1.772   3.930   2.531  0.8858 -2.1758 -0.8180
16282SOL    HW250288   1.774   4.019   2.408 -1.3016 -1.8756 -0.6768
16283SOL     OW50289   1.999   1.419   2.080  0.0788  0.0534 -0.0463
16283SOL    HW150290   2.042   1.407   2.165  1.9943  0.2187 -0.9495
16283SOL    HW250291   1.977   1.331   2.051 -2.1701  0.0764  1.3362
16284SOL     OW50292   4.045   1.150  11.686  0.0239 -1.2074  0.0857
16284SOL    HW150293   3.979   1.178  11.749 -1.4356 -2.6391 -0.7288
16284SOL    HW250294   4.119   1.121  11.740  0.9614  2.4044  0.9769
16285SOL     OW50295   0.999   5.672   0.279 -0.7256 -0.5208  0.8289
16285SOL    HW150296   1.050   5.630   0.347  2.2829  0.2789 -0.7608
16285SOL    HW250297   1.019   5.765   0.288  0.8542 -0.5057 -1.8552
16286SOL     OW50298   7.021   6.016   0.277  0.2117  0.1441 -0.0742
16286SOL    HW150299   7.067   5.940   0.310  0.4470  0.0581 -0.6020
16286SOL    HW250300   6.952   5.981   0.221  1.6360  0.3632 -2.0298
16287SOL     OW50301   0.163   4.962  11.952  0.1923  0.3236 -0.1377
16287SOL    HW150302   0.083   4.942  11.904 -1.0492  0.2578  1.8525
16287SOL    HW250303   0.166   5.058  11.954  0.3040  0.3285 -0.3946
16288SOL     OW50304   3.161   7.507   5.349  0.1776 -0.6623  0.6089
16288SOL    HW150305   3.140   7.462   5.267 -0.3318 -1.7947  1.3360
16288SOL    HW250306   3.085   7.490   5.405  0.3230  0.4702  1.1802
16289SOL     OW50307   3.715   1.479   9.144 -0.1065 -0.0416 -0.2396
16289SOL    HW150308   3.664   1.529   9.080 -0.3995 -0.5307 -0.3904
16289SOL    HW250309   3.653   1.413   9.178  0.7903 -1.5708 -1.4533
16290SOL     OW50310   2.623   4.011   2.591 -0.3591 -0.0593 -0.1830
16290SOL    HW150311   2.669   3.927   2.586 -1.1265 -0.7516  2.5218
16290SOL    HW250312   2.548   4.000   2.533  0.4856 -0.5471 -1.2289
16291SOL     OW50313   6.053   6.986  12.165  0.0473  0.2913 -0.6101
16291SOL    HW150314   6.114   6.971  12.236  0.8802  2.9035 -0.6694
16291SOL    HW250315   5.966   6.981  12.205  0.5017  1.5268  0.6019
16292SOL     OW50316   3.669   2.329   3.070 -0.6004  0.0960 -0.3440
16292SOL    HW150317   3.581   2.367   3.073 -0.3995  0.5278  0.1370
16292SOL    HW250318   3.666   2.268   2.996 -1.8199 -1.1686  0.7050
16293SOL     OW50319   2.102   4.823  10.821 -0.3046  0.1454  0.1965
16293SOL    HW150320   2.134   4.904  10.780 -0.0501  0.8794  1.7610
16293SOL    HW250321   2.168   4.803  10.887 -0.9314 -0.7385  0.5647
16294SOL     OW50322   1.993   6.983   7.415 -0.0270  0.4462  0.1060
16294SOL    HW150323   2.080   7.017   7.393 -0.3721  1.6513  0.4761
16294SOL    HW250324   2.007   6.935   7.497  0.0866  1.7776  0.8997
16295SOL     OW50325   2.165   4.868  12.270 -0.0481 -0.4825  0.4161
16295SOL    HW150326   2.133   4.958  12.273  0.1702 -0.3900 -0.0234
16295SOL    HW250327   2.213   4.857  12.352  0.4966  0.0151  0.1644
16296SOL     OW50328   6.835   4.830  10.984  0.4207  0.2459 -0.5038
16296SOL    HW150329   6.793   4.770  10.923 -1.0969  0.9079 -0.1538
16296SOL    HW250330   6.765   4.858  11.043  1.4031  1.2248  0.2482
16297SOL     OW50331   3.466   6.292   2.715  0.1328  0.4915 -0.0014
16297SOL    HW150332   3.524   6.238   2.769 -1.4461 -0.7479  0.5235
16297SOL    HW250333   3.379   6.254   2.728 -0.9045  2.6039 -0.3622
16298SOL     OW50334   5.049   5.805   3.649 -0.3256 -0.0651  0.0368
16298SOL    HW150335   5.036   5.871   3.717  0.8888 -0.9559  1.1601
16298SOL    HW250336   5.029   5.722   3.690  2.1042 -0.8088 -0.1010
16299SOL     OW50337   2.890   7.292   3.909  0.3560 -0.1962 -0.4590
16299SOL    HW150338   2.894   7.384   3.882  0.8575  0.5178  1.8593
16299SOL    HW250339   2.981   7.262   3.904  0.3646 -0.2243 -0.1599
16300SOL     OW50340   7.821   0.963   9.539  0.3134 -0.7145 -0.3360
16300SOL    HW150341   7.841   0.893   9.477 -1.1227 -0.0778 -1.5944
16300SOL    HW250342   7.725   0.963   9.545  0.2028  1.7616 -1.1649
16301SOL     OW50343   7.066   7.272  11.229 -0.2189  0.3048  0.1454
16301SOL    HW150344   6.995   7.252  11.168  0.5269 -0.7426 -0.4245
16301SOL    HW250345   7.109   7.349  11.191 -1.9715  1.9826  1.3493
16302SOL     OW50346   2.726   7.740  12.079 -0.2656  0.4795  0.3743
16302SOL    HW150347   2.723   7.735  11.984 -0.6888  0.3518  0.3926
16302SOL    HW250348   2.660   7.805  12.102  1.7447  2.6392  0.4278
16303SOL     OW50349   2.158   6.722   2.325  0.5839  0.2111  0.0548
16303SOL    HW150350   2.176   6.633   2.356  0.9753  0.1144 -0.4268
16303SOL    HW250351   2.228   6.775   2.362  1.7520 -0.1142 -1.5835
16304SOL     OW50352   0.913   6.805   0.434  0.7919 -0.0918 -0.2311
16304SOL    HW150353   0.830   6.845   0.406  0.2743 -1.9848 -1.6128
16304SOL    HW250354   0.979   6.845   0.378  0.6340  0.4497 -0.0404
16305SOL     OW50355   1.490   4.762   4.132 -0.3100  0.5727  0.3370
16305SOL    HW150356   1.416   4.751   4.072 -0.0459 -0.3204  0.1573
16305SOL    HW250357   1.450   4.790   4.214 -0.8699  0.0006  0.2717
16306SOL     OW50358   6.512   2.911   4.150 -0.5791 -0.0040 -1.1650
16306SOL    HW150359   6.515   2.816   4.136  0.0249 -0.3817  1.0717
16306SOL    HW250360   6.603   2.939   4.145 -0.3860 -0.0679  0.8592
16307SOL     OW50361   4.455   5.467   7.819 -0.4051 -0.0132 -0.2951
16307SOL    HW150362   4.382   5.518   7.784  0.0428 -1.1941 -3.3005
16307SOL    HW250363   4.532   5.523   7.806 -0.2758 -0.3443 -1.0256
16308SOL     OW50364   3.738   3.903  10.485 -0.2915  0.6368  0.0119
16308SOL    HW150365   3.677   3.829  10.484 -0.3786  0.6861  0.8481
16308SOL    HW250366   3.682   3.980  10.483 -0.1850  0.7412 -2.2994
16309SOL     OW50367   1.446   3.606   2.999  0.4826 -0.4676 -0.0517
16309SOL    HW150368   1.475   3.695   2.976  0.0444 -0.2335  0.2794
16309SOL    HW250369   1.497   3.584   3.077 -0.9682  0.3861  1.2040
16310SOL     OW50370   0.825   5.981  10.545 -0.7470 -0.0829 -0.3642
16310SOL    HW150371   0.738   6.020  10.542 -0.4902  0.4484 -1.6586
16310SOL    HW250372   0.876   6.033  10.482  0.1743 -1.1457 -0.5182
16311SOL     OW50373   0.349   7.297   3.621 -0.4448 -0.1286 -0.1069
16311SOL    HW150374   0.440   7.288   3.650 -0.0205  0.4014 -1.2105
16311SOL    HW250375   0.337   7.226   3.558 -0.3235  0.6726 -1.0594
16312SOL     OW50376   6.060   7.253   6.031  0.7079 -0.1699 -0.9826
16312SOL    HW150377   6.139   7.266   5.979 -0.3745  1.0413 -2.4212
16312SOL    HW250378   5.993   7.226   5.968 -0.2141 -0.4303  0.0661
16313SOL     OW50379   1.152   6.126   7.724  0.2479  0.1371 -0.7308
16313SOL    HW150380   1.107   6.042   7.712 -0.3669  0.6898 -2.6891
16313SOL    HW250381   1.200   6.140   7.642  3.3367  0.0283  0.9221
16314SOL     OW50382   0.971   6.332   9.204 -0.0193  0.4100 -0.1312
16314SOL    HW150383   0.876   6.342   9.211  0.0673  0.4484  1.5628
16314SOL    HW250384   1.006   6.401   9.261  1.0079  0.1697 -0.4597
16315SOL     OW50385   6.318   3.730   2.660 -0.0474  0.0138 -0.6482
16315SOL    HW150386   6.268   3.746   2.740 -0.3655 -4.4685  0.2787
16315SOL    HW250387   6.409   3.750   2.683 -0.4787  1.4753 -0.1381
16316SOL     OW50388   0.590   5.304   1.156 -0.2752  0.1951  0.3054
16316SOL    HW150389   0.599   5.364   1.230  1.2103 -1.6234  1.6989
16316SOL    HW250390   0.513   5.250   1.177  1.9107 -2.4490  2.3048
16317SOL     OW50391   1.781   3.996  11.061  0.6537 -0.1377  0.8647
16317SOL    HW150392   1.774   4.015  11.155 -0.2413 -0.8257  0.9564
16317SOL    HW250393   1.690   3.990  11.031  0.9123  1.2378 -0.3055
16318SOL     OW50394   6.211   7.281   1.666 -0.0428 -0.4538  0.1231
16318SOL    HW150395   6.147   7.244   1.727 -1.9746  0.5229 -1.2110
16318SOL    HW250396   6.164   7.352   1.622  1.7737 -0.1160 -1.3925
16319SOL     OW50397   5.067   0.732   6.137  0.0549  0.4968 -0.2565
16319SOL    HW150398   5.026   0.786   6.069 -2.1119  0.7001  1.1077
16319SOL    HW250399   5.052   0.780   6.218  0.8925 -0.6625  0.6210
16320SOL     OW50400   6.872   0.027  11.452  0.2122 -0.7237 -0.3371
16320SOL    HW150401   6.785  -0.003  11.479 -0.3993  0.1562 -1.2577
16320SOL    HW250402   6.876   0.118  11.481 -0.0528 -0.0735 -2.2174
16321SOL     OW50403   5.160   3.332   3.209  0.6240  0.5030 -0.4715
16321SOL    HW150404   5.133   3.406   3.155  0.3740  0.5768 -0.2464
16321SOL    HW250405   5.254   3.322   3.191  0.3984  0.0459 -1.4894
16322SOL     OW50406   6.977   5.300  11.443 -0.1753  0.4969 -0.0078
16322SOL    HW150407   6.977   5.328  11.534  1.0308  0.3935  0.0438
16322SOL    HW250408   7.069   5.305  11.416 -0.1830 -1.4573 -0.5874
16323SOL     OW50409   7.879   3.287  11.279  0.2599  0.2296 -0.3951
16323SOL    HW150410   7.949   3.222  11.275 -0.6897 -1.0661  2.0779
16323SOL    HW250411   7.808   3.249  11.227 -0.0111 -0.3942  0.4038
16324SOL     OW50412   2.903   3.172   4.332  0.4947  0.3624  0.0420
16324SOL    HW150413   2.822   3.128   4.308 -0.0094  0.8924  0.6947
16324SOL    HW250414   2.962   3.157   4.259 -0.9887  2.0239 -1.6247
16325SOL     OW50415   0.228   6.921   0.810 -0.0712 -0.3880  0.5406
16325SOL    HW150416   0.301   6.983   0.799  0.3711 -0.5312  2.3063
16325SOL    HW250417   0.235   6.862   0.735 -0.3830  1.5238 -1.0992
16326SOL     OW50418   5.947   6.451   4.517 -0.6694 -0.1369 -0.8970
16326SOL    HW150419   5.901   6.494   4.588 -1.3053 -2.4128  0.1735
16326SOL    HW250420   5.895   6.373   4.498  1.8939 -2.0583 -0.6631
16327SOL     OW50421   7.568   6.949   9.225  0.0431 -0.1590  0.3787
16327SOL    HW150422   7.523   6.865   9.233  0.1578 -0.2016  0.5698
16327SOL    HW250423   7.648   6.939   9.276 -0.8458  0.7081  2.0422
16328SOL     OW50424   0.616   1.881   0.489 -0.0716 -0.0363 -0.4437
16328SOL    HW150425   0.533   1.870   0.444 -0.0122 -2.6446 -0.0885
16328SOL    HW250426   0.658   1.795   0.483  2.0511  0.8629  0.4600
16329SOL     OW50427   7.710   3.363   2.037  0.3553 -0.3956 -0.0638
16329SOL    HW150428   7.691   3.365   1.943  0.8932  0.2088 -0.1723
16329SOL    HW250429   7.644   3.305   2.074 -0.6356  0.3278 -0.6419
16330SOL     OW50430   5.301   0.468   0.036 -0.7022  0.4284 -0.2048
16330SOL    HW150431   5.266   0.535   0.096  0.0097 -0.4061  1.2048
16330SOL    HW250432   5.391   0.496   0.019 -0.4748 -0.0265  0.2113
16331SOL     OW50433   6.489   4.686   4.347 -0.0131 -0.1755  0.3804
16331SOL    HW150434   6.473   4.646   4.262 -1.2859 -3.3307  1.9335
16331SOL    HW250435   6.574   4.652   4.374  0.4873  0.9824  0.3202
16332SOL     OW50436   1.015   0.799   3.405 -0.3776  0.3535 -0.3566
16332SOL    HW150437   0.938   0.824   3.354  0.5598  1.6140 -1.1990
16332SOL    HW250438   1.022   0.704   3.391 -2.6761 -0.1069  1.0520
16333SOL     OW50439   7.180   4.461   0.202  0.1269 -1.1191  0.0496
16333SOL    HW150440   7.168   4.541   0.151  0.3992 -0.8265  0.4352
16333SOL    HW250441   7.188   4.492   0.293  1.0159 -1.5222  0.1183
16334SOL     OW50442   0.578   4.694   0.724  0.4478 -0.2839 -0.4340
16334SOL    HW150443   0.551   4.708   0.814  0.5578  0.8986 -0.5707
16334SOL    HW250444   0.538   4.766   0.675  0.4414 -0.8707 -1.3218
16335SOL     OW50445   5.502   4.051   6.087  0.1446  0.3514 -0.0552
16335SOL    HW150446   5.438   4.055   6.158  0.9681 -0.2313  0.7385
16335SOL    HW250447   5.492   3.963   6.051  1.4048 -0.2354  0.9598
16336SOL     OW50448   0.243   7.589  10.118 -0.4940 -0.1439  0.4673
16336SOL    HW150449   0.295   7.518  10.080 -0.4044 -1.6492  3.1618
16336SOL    HW250450   0.284   7.605  10.203 -1.0435  2.6145  0.3011
16337SOL     OW50451   7.217   3.088   6.846  0.2586  0.3848  0.3123
16337SOL    HW150452   7.266   3.116   6.923 -2.8795 -0.1833  2.7485
16337SOL    HW250453   7.151   3.157   6.833 -0.6733 -0.6157 -0.4522
16338SOL     OW50454   0.235   4.070   2.457  0.4168 -0.4591 -0.1763
16338SOL    HW150455   0.263   4.160   2.472  1.8378 -0.9883  0.5489
16338SOL    HW250456   0.203   4.040   2.543 -1.9689 -0.0513 -0.8562
16339SOL     OW50457   4.608   7.686   5.589  0.1625  0.8389 -0.4093
16339SOL    HW150458   4.543   7.665   5.522  0.9615  0.9651 -1.2268
16339SOL    HW250459   4.686   7.637   5.564  1.1158  2.4548 -0.7173
16340SOL     OW50460   4.351   6.466   7.139  0.6342 -0.3074  0.4819
16340SOL    HW150461   4.430   6.447   7.190  1.2504  1.1895  0.1568
16340SOL    HW250462   4.359   6.559   7.118 -0.1784 -0.6111 -1.3391
16341SOL     OW50463   3.972   2.259   2.847  0.1985  0.0774 -0.2488
16341SOL    HW150464   3.937   2.171   2.858 -2.7934  0.9518 -1.6061
16341SOL    HW250465   4.067   2.248   2.848 -0.0400 -2.8624  1.4803
16342SOL     OW50466   1.424   6.179   6.524  0.0350  0.1606 -0.3255
16342SOL    HW150467   1.442   6.197   6.432 -0.7389 -1.2737 -0.7823
16342SOL    HW250468   1.328   6.170   6.528  0.0893 -0.1426  0.5531
16343SOL     OW50469   7.016   3.164  11.396 -0.7541  0.0911  0.1861
16343SOL    HW150470   7.019   3.153  11.301 -0.3255  1.1757  0.0666
16343SOL    HW250471   6.924   3.150  11.419 -0.5331 -2.2385 -0.1006
16344SOL     OW50472   7.573   3.307   3.876 -0.1584 -0.1469 -0.1506
16344SOL    HW150473   7.658   3.284   3.838  0.6888  2.2461  0.1190
16344SOL    HW250474   7.561   3.400   3.853 -2.5328 -0.3200  0.1591
16345SOL     OW50475   0.682   7.132   0.933 -0.3721  0.1586  0.4681
16345SOL    HW150476   0.731   7.158   0.855  0.4645  2.4539  1.6624
16345SOL    HW250477   0.592   7.121   0.903  0.0454  0.3525 -0.9195
16346SOL     OW50478   1.820   3.392   5.564 -0.7868  0.4973 -0.3892
16346SOL    HW150479   1.726   3.371   5.562 -0.3481 -1.9387  0.5875
16346SOL    HW250480   1.859   3.333   5.499  0.1846  0.8614 -0.1547
16347SOL     OW50481   3.409   7.692   2.417  0.1235 -0.2162  0.0819
16347SOL    HW150482   3.476   7.725   2.358  0.8838  1.6445  1.8737
16347SOL    HW250483   3.376   7.769   2.462 -0.6177 -1.5057  1.8698
16348SOL     OW50484   1.280   6.950   7.477  1.2191 -0.3790 -0.3642
16348SOL    HW150485   1.187   6.969   7.485  0.6970 -2.7364 -0.0389
16348SOL    HW250486   1.295   6.944   7.383  1.0865  0.2186 -0.4239
16349SOL     OW50487   4.185   3.048   4.765  0.1170  0.4822 -0.0542
16349SOL    HW150488   4.237   3.021   4.841  0.2289 -0.6688 -0.5201
16349SOL    HW250489   4.224   3.131   4.738  0.0956  0.8812  1.1195
16350SOL     OW50490   3.404   2.375   8.504  0.5078 -0.0307 -0.5406
16350SOL    HW150491   3.479   2.431   8.483 -0.1961  1.1283 -0.0796
16350SOL    HW250492   3.398   2.314   8.431  0.8199  1.0228 -1.4808
16351SOL     OW50493   5.486   6.795  12.172  0.1899  0.2542 -0.1755
16351SOL    HW150494   5.467   6.800  12.265  0.0143 -0.2081 -0.1835
16351SOL    HW250495   5.551   6.726  12.164  1.1218  1.1195 -0.2670
16352SOL     OW50496   5.201   2.136   8.628 -0.7951  0.3416  0.6844
16352SOL    HW150497   5.292   2.131   8.657 -0.6147  2.4157  0.6190
16352SOL    HW250498   5.198   2.084   8.548  0.6912  1.3711 -0.0861
16353SOL     OW50499   4.602   7.808   4.553  0.0201 -0.0196  0.0064
16353SOL    HW150500   4.559   7.798   4.638 -0.0262 -0.2625 -0.0463
16353SOL    HW250501   4.552   7.877   4.510 -0.5296 -0.5262 -0.1842
16354SOL     OW50502   7.282   2.768   7.773 -0.1251 -0.4906  0.0685
16354SOL    HW150503   7.313   2.781   7.862 -1.3249 -0.7549  0.5396
16354SOL    HW250504   7.282   2.856   7.734 -1.8485  0.0112  1.1053
16355SOL     OW50505   7.244   2.550   0.631  0.4381  0.0827  0.3688
16355SOL    HW150506   7.315   2.525   0.571  1.4223  0.9605  1.1206
16355SOL    HW250507   7.181   2.479   0.625  1.0971 -0.4371 -0.7775
16356SOL     OW50508   3.659   6.163   2.877 -0.3267  0.0178 -0.5013
16356SOL    HW150509   3.616   6.096   2.930  0.4175  0.7790  1.1093
16356SOL    HW250510   3.734   6.117   2.838  0.6267  0.0389  1.2060
16357SOL     OW50511   0.745   4.958   6.233 -0.4858  0.1464 -0.3841
16357SOL    HW150512   0.662   4.924   6.199 -1.0352  1.2866 -0.2529
16357SOL    HW250513   0.761   4.906   6.312 -1.1669  0.0135 -0.3223
16358SOL     OW50514   0.211   6.529  10.930  0.0875 -0.1425 -0.2891
16358SOL    HW150515   0.166   6.474  10.866  0.3265 -0.6655 -0.0170
16358SOL    HW250516   0.170   6.615  10.920  0.0593 -0.2336 -1.0783
16359SOL     OW50517   3.074   5.055   0.730  0.0547  0.2531 -0.0519
16359SOL    HW150518   2.998   5.060   0.671 -0.6685  3.0179  0.9296
16359SOL    HW250519   3.149   5.071   0.673 -0.1133 -1.6793 -0.8990
16360SOL     OW50520   4.143   6.746  10.813  0.2472  0.0098  0.0359
16360SOL    HW150521   4.197   6.823  10.831  1.8027 -1.4251  1.8810
16360SOL    HW250522   4.181   6.708  10.734 -1.0843  1.5367 -1.4144
16361SOL     OW50523   2.905   0.696  11.267 -0.2644 -0.2056 -0.1812
16361SOL    HW150524   2.908   0.755  11.342 -1.3832  2.6542 -2.2157
16361SOL    HW250525   2.991   0.705  11.226 -0.5668  0.3137 -0.7052
16362SOL     OW50526   3.743   6.669  10.580 -1.0606  0.2288  0.0480
16362SOL    HW150527   3.772   6.741  10.637 -0.4895  0.7240 -0.8432
16362SOL    HW250528   3.811   6.603  10.589  0.2973  1.2752 -1.8248
16363SOL     OW50529   7.535   4.647   1.797 -0.2825  0.2175 -0.1480
16363SOL    HW150530   7.617   4.692   1.776 -0.8453  0.7927 -1.1956
16363SOL    HW250531   7.562   4.565   1.839  0.7871  0.9248  0.5650
16364SOL     OW50532   4.785   4.661   1.219 -0.4503 -0.0436  0.7176
16364SOL    HW150533   4.757   4.611   1.295 -1.2125  0.9664  1.1303
16364SOL    HW250534   4.881   4.663   1.225 -0.2882 -2.5850 -0.0807
16365SOL     OW50535   1.624   3.400  11.654 -0.1795  0.0321  0.5441
16365SOL    HW150536   1.581   3.451  11.722 -0.1198  1.0538 -0.1749
16365SOL    HW250537   1.680   3.339  11.702  2.1930  2.6955  1.4455
16366SOL     OW50538   3.774   7.137   7.704  0.2116 -0.4206 -0.8377
16366SOL    HW150539   3.712   7.083   7.655  0.3926 -1.8197  0.3980
16366SOL    HW250540   3.744   7.227   7.690 -0.5251 -0.8645 -2.3848
16367SOL     OW50541   5.686   0.688   6.724 -0.5928 -0.4372  0.2047
16367SOL    HW150542   5.666   0.716   6.814  1.6116  0.2920  0.5206
16367SOL    HW250543   5.614   0.723   6.672 -2.1604 -1.2592  1.7108
16368SOL     OW50544   7.643   2.609   2.242  0.2390  0.5722  0.1803
16368SOL    HW150545   7.568   2.663   2.215  0.8074  2.0335  1.3955
16368SOL    HW250546   7.618   2.575   2.328  1.2522  1.7253  0.9644
16369SOL     OW50547   3.667   5.242   8.332  0.3347  0.2209  1.1162
16369SOL    HW150548   3.754   5.248   8.372  0.5855  2.0493  0.3960
16369SOL    HW250549   3.679   5.276   8.243 -1.2643  1.3149  1.2737
16370SOL     OW50550   0.289   4.816   7.360 -0.0768  0.1904 -0.2969
16370SOL    HW150551   0.366   4.872   7.374 -0.1197 -0.0162  0.8771
16370SOL    HW250552   0.322   4.742   7.309  0.3826  0.3598 -0.2507
16371SOL     OW50553   2.851   4.383   7.268 -0.4195  0.2257  0.2819
16371SOL    HW150554   2.846   4.302   7.217  1.5290  0.5223 -0.4768
16371SOL    HW250555   2.873   4.353   7.357 -0.3818 -0.1262  0.1568
16372SOL     OW50556   2.413   6.806   8.819  0.5661 -0.2664  0.2598
16372SOL    HW150557   2.349   6.838   8.883  0.9200 -0.1933  0.5831
16372SOL    HW250558   2.401   6.711   8.817  2.2736 -0.6089  2.3685
16373SOL     OW50559   4.357   2.830   6.646  0.6974 -0.3285 -0.1270
16373SOL    HW150560   4.275   2.848   6.599  1.0530 -0.1612 -0.6780
16373SOL    HW250561   4.328   2.787   6.727  0.2050 -2.3929 -1.3491
16374SOL     OW50562   7.260   2.486   2.507 -0.5141  0.1416 -0.0960
16374SOL    HW150563   7.231   2.399   2.480 -0.4822  0.6515 -1.8647
16374SOL    HW250564   7.179   2.535   2.517 -0.5006  0.0892  0.2806
16375SOL     OW50565   0.942   3.431   4.640 -0.4739  0.0448 -0.3809
16375SOL    HW150566   0.970   3.387   4.560 -0.3361  0.1475 -0.3899
16375SOL    HW250567   0.876   3.372   4.678 -0.0961 -0.3015 -0.2537
16376SOL     OW50568   3.201   7.913   3.723 -0.5277  0.1750 -0.1098
16376SOL    HW150569   3.172   7.938   3.635 -0.1546  0.6729 -0.0996
16376SOL    HW250570   3.205   7.996   3.771  1.9842  0.3204 -0.4380
16377SOL     OW50571   1.095   4.194   7.960  0.0601 -0.9698  0.7050
16377SOL    HW150572   1.016   4.231   8.000 -0.6280 -0.6721 -0.8531
16377SOL    HW250573   1.134   4.268   7.913 -0.0707 -1.6767 -0.5383
16378SOL     OW50574   5.608   4.902   6.184 -0.0685  0.2115 -0.0242
16378SOL    HW150575   5.674   4.963   6.217 -1.0710  0.8815  0.8018
16378SOL    HW250576   5.583   4.938   6.099 -0.5399  0.8836  0.3892
16379SOL     OW50577   3.527   5.198   0.728 -0.1143 -0.0502  0.0333
16379SOL    HW150578   3.577   5.280   0.730 -1.7263  1.0102 -0.7360
16379SOL    HW250579   3.474   5.201   0.807 -0.0826 -0.4280  0.0693
16380SOL     OW50580   5.114   5.308  11.239  0.1082  0.5698  0.0134
16380SOL    HW150581   5.078   5.230  11.280 -1.2720  0.3773 -1.4684
16380SOL    HW250582   5.207   5.288  11.226  0.3873  0.2775  2.0722
16381SOL     OW50583   3.246   5.090   3.636  0.6753  0.4491 -0.2873
16381SOL    HW150584   3.265   5.062   3.546  0.9379  0.8997 -0.3733
16381SOL    HW250585   3.329   5.082   3.682  0.2533 -1.0257  0.2532
16382SOL     OW50586   4.316   0.339   2.259  0.5229  0.3364  0.4417
16382SOL    HW150587   4.262   0.406   2.217  0.7607 -0.7594 -1.7551
16382SOL    HW250588   4.278   0.256   2.231  2.3786 -0.4504  0.0818
16383SOL     OW50589   0.520   1.924   2.308  0.3799  0.2752 -0.2378
16383SOL    HW150590   0.547   2.001   2.258 -1.9908  0.8374 -0.7974
16383SOL    HW250591   0.493   1.959   2.394  0.0893 -0.0334 -0.2000
16384SOL     OW50592   4.381   4.557   8.475  0.3162 -0.2991  0.5578
16384SOL    HW150593   4.434   4.625   8.434 -1.9394  0.1676 -1.7871
16384SOL    HW250594   4.328   4.604   8.540  1.1073 -0.3908  1.2801
16385SOL     OW50595   5.309   5.128  10.730  0.8942  0.1595  0.2025
16385SOL    HW150596   5.257   5.160  10.803 -0.3610  0.5632 -0.8321
16385SOL    HW250597   5.257   5.149  10.652  0.9006 -2.6370 -0.6605
16386SOL     OW50598   6.397   2.486   3.286 -0.4051 -0.4585 -0.0291
16386SOL    HW150599   6.394   2.578   3.259 -2.2474 -0.4825 -0.0119
16386SOL    HW250600   6.416   2.489   3.380 -1.8432 -0.0103  0.2654
16387SOL     OW50601   1.495   6.697   4.480 -0.0960  0.1889  0.6120
16387SOL    HW150602   1.400   6.700   4.473 -0.0118  2.0720 -0.5459
16387SOL    HW250603   1.520   6.615   4.437 -1.2304 -0.9389  2.0105
16388SOL     OW50604   1.985   2.509  10.352  0.8078 -0.7652 -0.3143
16388SOL    HW150605   2.010   2.570  10.421 -1.5783 -0.0513  0.0370
16388SOL    HW250606   2.045   2.435  10.362  2.8691  0.8723  0.1559
16389SOL     OW50607   4.822   6.342  10.231 -0.6858  0.0327  0.3884
16389SOL    HW150608   4.864   6.408  10.286  2.8191 -1.0677 -0.7101
16389SOL    HW250609   4.795   6.273  10.292  0.8388 -0.0438  1.0130
16390SOL     OW50610   6.295   7.187   6.866 -0.0570  0.0065  0.2137
16390SOL    HW150611   6.300   7.203   6.771  1.2434 -0.5750  0.1655
16390SOL    HW250612   6.222   7.242   6.895 -0.0021  0.7710 -0.9961
16391SOL     OW50613   1.541   4.178   8.977  0.1776 -0.4005  0.0038
16391SOL    HW150614   1.525   4.093   9.019  2.2912 -0.1841  1.3971
16391SOL    HW250615   1.583   4.231   9.045  1.7205  0.7136 -1.7272
16392SOL     OW50616   7.336   6.523   9.524  0.1250  0.4516 -0.1064
16392SOL    HW150617   7.415   6.469   9.528  0.2948  0.7586  1.0312
16392SOL    HW250618   7.347   6.587   9.594 -1.5580 -0.0856  0.7052
16393SOL     OW50619   7.356   6.494   2.770 -0.0575 -0.2057 -0.0386
16393SOL    HW150620   7.271   6.504   2.725  1.0542  0.9936 -2.0349
16393SOL    HW250621   7.403   6.429   2.718  0.7014  0.0681  0.2977
16394SOL     OW50622   3.761   0.573   0.049 -0.4417  0.3291  0.6601
16394SOL    HW150623   3.707   0.525   0.111 -0.9285 -0.1496 -0.1204
16394SOL    HW250624   3.728   0.547  -0.037  0.6557  0.4577  0.1796
16395SOL     OW50625   3.899   7.737  11.943 -0.1535 -0.1732 -0.0984
16395SOL    HW150626   3.919   7.752  12.035  3.1794  1.7522 -0.9348
16395SOL    HW250627   3.854   7.817  11.915 -1.8845 -1.0883 -0.0154
16396SOL     OW50628   4.058   5.856  10.909  0.4840  0.2295  0.3233
16396SOL    HW150629   4.107   5.784  10.870  0.4046  0.9824 -1.2418
16396SOL    HW250630   4.056   5.836  11.002  1.7928 -0.9907  0.1219
16397SOL     OW50631   1.862   7.327   4.936  0.0320 -0.0587 -0.3550
16397SOL    HW150632   1.787   7.289   4.981 -1.2790  1.5068 -1.1509
16397SOL    HW250633   1.851   7.301   4.845  1.3194 -1.0865 -0.2584
16398SOL     OW50634   1.396   4.423   1.135  0.0370  0.3330  0.5778
16398SOL    HW150635   1.383   4.449   1.226 -0.0583  0.8382  0.4229
16398SOL    HW250636   1.319   4.370   1.114 -0.2505  0.7347  0.6046
16399SOL     OW50637   3.644   5.100   3.086 -0.2488  0.2397  0.0820
16399SOL    HW150638   3.652   5.185   3.130  0.0940  0.5924 -0.6303
16399SOL    HW250639   3.567   5.059   3.126 -0.9380  1.2610 -0.1511
16400SOL     OW50640   2.239   5.834   5.266  0.0384 -0.2066 -0.1993
16400SOL    HW150641   2.226   5.880   5.183 -0.4965  1.5985  0.8509
16400SOL    HW250642   2.169   5.769   5.269 -0.7011  0.5545 -0.6070
16401SOL     OW50643   1.695   1.117  10.782  0.2630  0.1995  0.4672
16401SOL    HW150644   1.631   1.083  10.720  1.2702  0.2311 -0.6363
16401SOL    HW250645   1.662   1.204  10.806 -0.8877 -0.4068  1.1390
16402SOL     OW50646   2.260   0.597   8.236  0.3061  0.4996 -0.4202
16402SOL    HW150647   2.170   0.583   8.206  0.0563 -0.5128  0.6971
16402SOL    HW250648   2.296   0.509   8.245  0.4873  0.7446  1.7820
16403SOL     OW50649   2.294   1.932   0.701  0.4706  0.3644  0.7821
16403SOL    HW150650   2.298   1.852   0.754  2.2507  0.0385  0.2247
16403SOL    HW250651   2.208   1.970   0.721 -0.2853 -1.5125  1.2894
16404SOL     OW50652   4.698   2.524   2.155  0.0727  0.3013  0.2306
16404SOL    HW150653   4.781   2.532   2.201  0.4353 -1.8628  0.0670
16404SOL    HW250654   4.646   2.465   2.209 -1.0190  0.8947 -0.1376
16405SOL     OW50655   3.841   0.082   2.342  0.0815  0.0579 -0.5671
16405SOL    HW150656   3.834   0.176   2.360 -0.3955  0.1504 -1.1946
16405SOL    HW250657   3.810   0.073   2.252  0.3820 -0.6695 -0.6025
16406SOL     OW50658   6.001   0.664  10.597 -0.3981 -0.3161 -0.7798
16406SOL    HW150659   5.958   0.732  10.647  0.5319 -0.1671 -0.1457
16406SOL    HW250660   5.958   0.583  10.625 -0.9234 -0.0809 -0.8958
16407SOL     OW50661   3.171   3.671   0.955 -0.0069  0.1223 -0.3848
16407SOL    HW150662   3.226   3.732   0.906  1.5217 -1.6938 -1.0736
16407SOL    HW250663   3.098   3.651   0.897  0.3293  0.0948 -0.7997
16408SOL     OW50664   1.642   7.544   6.139 -0.4642  0.0541 -0.4223
16408SOL    HW150665   1.618   7.637   6.140 -1.0770 -0.0977  0.6875
16408SOL    HW250666   1.738   7.544   6.144 -0.5182  0.6504  1.8949
16409SOL     OW50667   2.635   0.584   5.253 -0.1605  0.4029  0.2083
16409SOL    HW150668   2.568   0.516   5.243  0.7646 -0.3521 -1.1436
16409SOL    HW250669   2.676   0.565   5.337  0.1382 -0.7744 -0.1947
16410SOL     OW50670   0.002   0.855  11.636  0.1807 -0.3877 -0.1928
16410SOL    HW150671   0.076   0.804  11.668  0.9162  1.8488  1.9409
16410SOL    HW250672  -0.073   0.820  11.685 -0.0348 -1.8065 -1.4445
16411SOL     OW50673   2.450   0.876   4.430  0.1736  0.1647 -0.4374
16411SOL    HW150674   2.456   0.864   4.335  0.2279 -1.6271 -0.2507
16411SOL    HW250675   2.357   0.861   4.449  0.1404  0.6518 -0.2240
16412SOL     OW50676   2.391   6.975   2.237 -1.0686  0.1797 -0.1055
16412SOL    HW150677   2.434   6.927   2.166  1.3641  0.0263  1.3588
16412SOL    HW250678   2.346   7.047   2.194 -0.1416 -0.2214 -1.8419
16413SOL     OW50679   2.596   7.178   7.080 -0.0767 -0.1829 -0.0438
16413SOL    HW150680   2.559   7.251   7.031 -0.4917  0.6811  1.4946
16413SOL    HW250681   2.687   7.203   7.096 -0.3637  0.2733  0.9477
16414SOL     OW50682   7.053   0.119   5.667  0.1470  0.0515 -0.2730
16414SOL    HW150683   7.039   0.080   5.581 -0.5152  1.5189 -0.8620
16414SOL    HW250684   7.100   0.200   5.649  1.4798 -0.4216  0.9169
16415SOL     OW50685   2.588   4.260   2.053  0.2350  0.5310 -0.0938
16415SOL    HW150686   2.521   4.196   2.030  0.4036  0.1961  0.3164
16415SOL    HW250687   2.636   4.219   2.126  1.3613  0.4379 -0.8669
16416SOL     OW50688   7.889   1.175  11.436  0.3115  0.5297 -0.5316
16416SOL    HW150689   7.918   1.184  11.527 -1.2212  0.0548  0.0247
16416SOL    HW250690   7.909   1.085  11.414  1.1405  0.7824 -0.8456
16417SOL     OW50691   2.416   6.087   6.337 -0.1893 -0.0957  0.6157
16417SOL    HW150692   2.407   5.995   6.363 -1.3223  0.1562  1.1707
16417SOL    HW250693   2.378   6.091   6.249 -0.0987 -0.1691  0.5733
16418SOL     OW50694   2.735   4.307   2.474  0.0932  0.2770 -0.4290
16418SOL    HW150695   2.719   4.252   2.397  0.8033  0.1131 -0.4659
16418SOL    HW250696   2.830   4.323   2.474  0.2688 -0.5613  0.9667
16419SOL     OW50697   0.292   7.293   9.763 -0.3471 -0.0269 -0.3462
16419SOL    HW150698   0.323   7.321   9.849 -0.1280  0.0012 -0.4341
16419SOL    HW250699   0.206   7.254   9.780  0.3471 -1.4428  0.1085
16420SOL     OW50700   1.500   2.505   2.394 -0.3038  0.2095 -0.5028
16420SOL    HW150701   1.537   2.583   2.436 -1.5938  0.7025 -0.2135
16420SOL    HW250702   1.558   2.434   2.418 -0.0604  0.7905  0.6908
16421SOL     OW50703   4.757   3.085   3.077 -0.5910  0.3107  0.1682
16421SOL    HW150704   4.757   3.177   3.104 -0.7640  1.1519 -2.3782
16421SOL    HW250705   4.844   3.053   3.100 -0.8099  0.8517  1.8403
16422SOL     OW50706   4.786   0.967   0.502  0.0340  0.2488 -0.1597
16422SOL    HW150707   4.844   1.024   0.451  0.0185  0.2280 -0.2006
16422SOL    HW250708   4.717   1.025   0.534 -0.2031  0.1789 -0.5376
16423SOL     OW50709   7.149   2.401   6.371  0.3306  0.1291 -0.0855
16423SOL    HW150710   7.085   2.472   6.365  0.9223  0.5377 -2.9832
16423SOL    HW250711   7.228   2.443   6.407  0.3954  0.7608 -0.9340
16424SOL     OW50712   0.578   6.004  12.236  0.2058  0.2586  0.6715
16424SOL    HW150713   0.532   6.074  12.189 -1.0200 -0.5842  0.5727
16424SOL    HW250714   0.581   6.034  12.327  1.0543  1.1135  0.3823
16425SOL     OW50715   6.876   4.582   5.823 -0.0077 -0.4743  0.1476
16425SOL    HW150716   6.905   4.496   5.851 -1.2659 -0.8160  0.4436
16425SOL    HW250717   6.952   4.619   5.777  1.2128 -0.9395  1.6886
16426SOL     OW50718   0.063   1.730   5.549  0.8567 -0.7196 -0.1502
16426SOL    HW150719   0.047   1.652   5.602 -0.9850 -1.1095 -1.1962
16426SOL    HW250720  -0.015   1.784   5.562  0.6068 -0.5728 -2.0083
16427SOL     OW50721   0.175   6.678   8.098 -0.6275  0.8311 -0.6266
16427SOL    HW150722   0.130   6.597   8.122  0.8374 -0.1979 -1.1961
16427SOL    HW250723   0.215   6.708   8.180  1.2142 -0.6305 -0.9053
16428SOL     OW50724   6.170   7.743   4.234 -0.1067  0.2075  0.1745
16428SOL    HW150725   6.103   7.772   4.296 -0.7401 -1.3268  0.2579
16428SOL    HW250726   6.124   7.684   4.175  1.2283 -1.2320  0.5014
16429SOL     OW50727   6.692   1.746   4.400  0.0734  0.0791 -0.7454
16429SOL    HW150728   6.699   1.657   4.435 -0.2294  0.3726  0.0627
16429SOL    HW250729   6.620   1.786   4.449  0.1462  0.7425 -1.1703
16430SOL     OW50730   3.711   5.126   5.040 -0.5500  0.3200  0.1073
16430SOL    HW150731   3.691   5.189   5.109  1.0350  0.1835  0.7545
16430SOL    HW250732   3.652   5.052   5.057  0.5087 -0.1764  2.0489
16431SOL     OW50733   5.288   4.957   3.192  0.0426  0.2553 -0.1025
16431SOL    HW150734   5.194   4.943   3.195  0.1059 -0.1497  0.0507
16431SOL    HW250735   5.320   4.895   3.127  0.1975  0.4248 -0.1889
16432SOL     OW50736   5.742   2.106  11.427 -0.6006  0.0145 -0.0663
16432SOL    HW150737   5.732   2.125  11.334 -2.2176 -0.9028 -0.1208
16432SOL    HW250738   5.691   2.174  11.471 -0.7301 -0.1787  0.0836
16433SOL     OW50739   0.046   3.856   0.766  0.3846  0.7362 -0.2859
16433SOL    HW150740   0.031   3.937   0.717 -2.4896 -0.5318 -1.7771
16433SOL    HW250741  -0.041   3.816   0.773  1.2741 -0.9978  2.7054
16434SOL     OW50742   4.991   4.798   1.458  0.1289 -0.0614 -0.2216
16434SOL    HW150743   4.989   4.703   1.463 -3.6938 -0.1601 -0.6467
16434SOL    HW250744   4.987   4.828   1.549 -1.0741 -0.3993 -0.1492
16435SOL     OW50745   2.236   7.079   1.846  0.1505 -0.0473  0.3378
16435SOL    HW150746   2.141   7.092   1.846  0.2905  1.0689  0.2460
16435SOL    HW250747   2.250   7.006   1.786 -0.6992 -0.6700  0.8723
16436SOL     OW50748   0.332   3.993   0.453  0.3520 -0.0626  0.0831
16436SOL    HW150749   0.283   4.027   0.378  0.6834 -1.2112 -0.7006
16436SOL    HW250750   0.422   3.983   0.419  0.7657  0.5027  0.9966
16437SOL     OW50751   7.060   2.348   0.613 -0.4137 -0.1274  0.0443
16437SOL    HW150752   7.003   2.389   0.678  0.1018 -0.7045  0.8646
16437SOL    HW250753   7.009   2.352   0.531 -0.6217  1.5732  0.2277
16438SOL     OW50754   3.865   5.663   7.230 -0.6263 -0.3472  0.5113
16438SOL    HW150755   3.944   5.698   7.271 -0.4126 -1.0114  0.6808
16438SOL    HW250756   3.795   5.719   7.262 -0.3762 -0.4533  1.2760
16439SOL     OW50757   5.890   2.476   6.518 -0.3483 -0.4255  0.6779
16439SOL    HW150758   5.967   2.522   6.552 -0.2442  0.5168 -0.7598
16439SOL    HW250759   5.918   2.384   6.513  0.9426 -0.0120 -0.4122
16440SOL     OW50760   4.138   5.620  10.542 -0.4224  0.1731 -0.2850
16440SOL    HW150761   4.228   5.614  10.572 -0.9348  2.0050  1.8455
16440SOL    HW250762   4.132   5.704  10.497 -0.9698 -0.1416 -0.8258
16441SOL     OW50763   4.791   4.276  12.039  0.2525 -0.1649  0.5902
16441SOL    HW150764   4.869   4.295  12.091 -0.0062  1.2787  0.4818
16441SOL    HW250765   4.720   4.272  12.102  0.0883  0.6596  0.4721
16442SOL     OW50766   1.689   5.135  12.253  0.1737  0.8659  0.6119
16442SOL    HW150767   1.764   5.191  12.236  1.9768 -1.3955  0.5727
16442SOL    HW250768   1.712   5.088  12.334 -0.5095 -0.8982 -0.1533
16443SOL     OW50769   6.411   7.131   4.131  0.1952  0.1979  0.4456
16443SOL    HW150770   6.428   7.180   4.051  2.1225  1.2151  1.3936
16443SOL    HW250771   6.452   7.045   4.115 -0.3508  0.0235 -0.0346
16444SOL     OW50772   7.228   1.119   2.908  0.0481  0.0051  0.1042
16444SOL    HW150773   7.299   1.116   2.972  1.3854 -1.2340 -1.3479
16444SOL    HW250774   7.258   1.183   2.843  1.3064 -2.5815 -2.0396
16445SOL     OW50775   1.263   2.199   4.062  0.1138 -0.5581 -0.4284
16445SOL    HW150776   1.185   2.166   4.017  0.3495  1.1274 -2.2275
16445SOL    HW250777   1.294   2.270   4.006  0.5524  1.5955  2.3373
16446SOL     OW50778   1.510   0.218   7.858  0.2698 -0.2835  0.0711
16446SOL    HW150779   1.415   0.222   7.869  0.2654 -0.9247  0.2578
16446SOL    HW250780   1.545   0.268   7.932  0.0816  0.0720 -0.0736
16447SOL     OW50781   4.383   1.401  12.189 -0.4303  0.5224 -0.7182
16447SOL    HW150782   4.371   1.326  12.131 -2.2974 -1.3304  1.8752
16447SOL    HW250783   4.452   1.374  12.249 -3.7446 -0.9996  2.7586
16448SOL     OW50784   6.975   0.568   6.482  0.0296  0.3540 -0.1751
16448SOL    HW150785   6.978   0.483   6.437  0.8724  0.0401  0.4579
16448SOL    HW250786   6.981   0.547   6.575 -0.5123  1.0721  0.0331
16449SOL     OW50787   3.034   5.283   0.946 -0.4926 -0.0809 -0.3101
16449SOL    HW150788   3.128   5.264   0.939 -0.6078 -1.7011  1.6500
16449SOL    HW250789   2.996   5.241   0.869  0.1697 -1.3689  0.0347
16450SOL     OW50790   2.670   6.112  11.586 -0.4249  0.1434 -0.2850
16450SOL    HW150791   2.711   6.195  11.561  0.1915 -0.0350  0.0981
16450SOL    HW250792   2.678   6.057  11.508  0.2606  0.0443 -0.1542
16451SOL     OW50793   0.528   4.440   1.116 -0.3184 -0.6469  0.4768
16451SOL    HW150794   0.455   4.392   1.078 -0.5871 -0.1154  0.3034
16451SOL    HW250795   0.503   4.452   1.208 -0.9723  0.4663  0.1812
16452SOL     OW50796   7.225   6.374   1.653  0.1225  0.0389 -0.2903
16452SOL    HW150797   7.301   6.359   1.596  1.0355  0.9243  0.6443
16452SOL    HW250798   7.177   6.445   1.612 -0.9370 -1.3669 -1.5666
16453SOL     OW50799   6.869   4.890   7.633  0.3969 -0.3022  0.1405
16453SOL    HW150800   6.888   4.825   7.701  1.0990 -0.4150 -0.1521
16453SOL    HW250801   6.931   4.961   7.651  0.2380 -0.1105 -0.0768
16454SOL     OW50802   3.838   5.576   1.930  0.2062  0.0956  0.1942
16454SOL    HW150803   3.907   5.531   1.880  0.6176  0.8995  0.0156
16454SOL    HW250804   3.771   5.596   1.865 -0.4922 -1.2421  0.4867
16455SOL     OW50805   0.282   4.443   2.779  0.1051 -0.3611 -0.2904
16455SOL    HW150806   0.343   4.446   2.705 -1.1791  1.6317 -1.3536
16455SOL    HW250807   0.245   4.355   2.775  1.5452 -0.9729 -0.7535
16456SOL     OW50808   7.386   3.993   8.815  0.2818 -0.4035  0.5257
16456SOL    HW150809   7.432   4.076   8.810 -0.8732  0.3524  1.8219
16456SOL    HW250810   7.313   4.001   8.754  0.2854 -0.5479  0.5010
16457SOL     OW50811   5.126   2.833  11.611 -0.3084 -0.4434  0.2751
16457SOL    HW150812   5.081   2.916  11.595  0.0543  0.5530  3.7168
16457SOL    HW250813   5.077   2.770  11.557 -1.6749  1.6520 -1.1347
16458SOL     OW50814   1.170   6.191   1.343 -0.0129 -0.1068  0.1726
16458SOL    HW150815   1.219   6.219   1.265  0.5540 -1.4841  0.0033
16458SOL    HW250816   1.123   6.269   1.371  1.4195  0.9790 -0.3189
16459SOL     OW50817   2.816   4.537   6.832 -0.0980  0.2568 -0.6551
16459SOL    HW150818   2.731   4.514   6.868  1.0443  0.6192  2.5703
16459SOL    HW250819   2.810   4.631   6.814  0.0782  0.6620  1.2040
16460SOL     OW50820   2.783   3.765   2.506  0.1111  0.1363  0.0096
16460SOL    HW150821   2.790   3.671   2.487  0.5069 -0.1119  1.2561
16460SOL    HW250822   2.741   3.802   2.429 -0.6523 -1.1743 -0.2431
16461SOL     OW50823   0.107   1.047   8.037 -0.6119 -0.2711 -0.0143
16461SOL    HW150824   0.023   1.025   8.079 -0.6696  0.4664  0.2616
16461SOL    HW250825   0.097   1.016   7.947 -1.7199  1.0491 -0.3833
16462SOL     OW50826   1.055   0.992   5.075 -0.6907 -0.4143 -0.0776
16462SOL    HW150827   1.059   0.896   5.075 -0.5981 -0.4168 -0.7065
16462SOL    HW250828   1.117   1.018   5.143  2.7919 -0.7106 -2.8512
16463SOL     OW50829   5.832   1.240   3.565  0.3186  0.6123  0.0125
16463SOL    HW150830   5.831   1.336   3.562  0.1723  0.6068 -2.5800
16463SOL    HW250831   5.877   1.214   3.485 -0.9723 -1.5042 -0.1152
16464SOL     OW50832   1.496   2.256   7.328  0.3420  0.1414  0.2604
16464SOL    HW150833   1.535   2.332   7.285  1.8916 -1.1254 -0.7175
16464SOL    HW250834   1.414   2.241   7.282  1.2079 -0.2170 -1.2402
16465SOL     OW50835   2.246   6.737  11.113 -0.4803 -0.1869 -0.1698
16465SOL    HW150836   2.284   6.650  11.103 -1.9761 -1.0466  1.0795
16465SOL    HW250837   2.267   6.763  11.203 -3.1056 -0.9311  0.7647
16466SOL     OW50838   6.111   3.802   8.167 -0.1132  0.4909 -0.1399
16466SOL    HW150839   6.069   3.798   8.081 -0.5278  1.5432 -0.0106
16466SOL    HW250840   6.062   3.870   8.213  0.6811  0.5645  0.6104
16467SOL     OW50841   1.629   2.943   5.027 -1.1779 -0.6249 -0.4343
16467SOL    HW150842   1.677   2.867   4.993 -1.6789 -1.2822  0.2849
16467SOL    HW250843   1.566   2.965   4.958 -0.9243 -0.7591 -0.7124
16468SOL     OW50844   5.009   5.846   4.523  0.5613  0.4181 -0.0233
16468SOL    HW150845   5.092   5.880   4.490  1.0103 -1.0669 -0.5026
16468SOL    HW250846   4.986   5.774   4.464  0.4981 -1.1940  1.8304
16469SOL     OW50847   6.152   6.494   2.767  0.4828  0.5441  0.4528
16469SOL    HW150848   6.184   6.460   2.851 -2.6011 -0.8646  1.1992
16469SOL    HW250849   6.097   6.424   2.732  0.7175  1.5739 -2.2145
16470SOL     OW50850   4.825   0.281   3.885  0.0582  0.8508  0.2665
16470SOL    HW150851   4.804   0.211   3.823 -1.2850  1.4482  0.0093
16470SOL    HW250852   4.912   0.312   3.859  0.5454 -0.4998  0.2003
16471SOL     OW50853   7.660   6.752   1.667  0.2962 -0.3183  0.0672
16471SOL    HW150854   7.734   6.813   1.666  0.2115 -0.0786  2.5202
16471SOL    HW250855   7.606   6.779   1.593  0.9339  1.7484  0.2985
16472SOL     OW50856   3.461   1.299   7.966  0.0736 -0.5012 -0.3465
16472SOL    HW150857   3.372   1.304   8.001  0.1732 -1.8103  0.1553
16472SOL    HW250858   3.452   1.321   7.874 -0.8211 -0.8295 -0.3507
16473SOL     OW50859   3.577   2.334   6.544  0.0403  0.6959  0.5137
16473SOL    HW150860   3.567   2.240   6.559  0.2245  0.1372 -2.2337
16473SOL    HW250861   3.647   2.360   6.604 -0.2499 -0.8284  1.5792
16474SOL     OW50862   1.230   2.101   0.370 -0.1468  0.1607  0.3988
16474SOL    HW150863   1.297   2.057   0.318 -0.4279 -0.3325  0.4451
16474SOL    HW250864   1.173   2.030   0.400 -0.1793  0.4708  1.1042
16475SOL     OW50865   4.718   2.087   4.108 -0.0756 -0.3330 -0.2395
16475SOL    HW150866   4.676   2.011   4.066 -1.6308  0.7276 -0.7098
16475SOL    HW250867   4.777   2.049   4.173 -1.5352 -1.9544  0.2204
16476SOL     OW50868   4.225   5.237  12.079  0.2173  0.2661  0.5779
16476SOL    HW150869   4.195   5.150  12.107 -1.2204  1.3633  2.7352
16476SOL    HW250870   4.158   5.267  12.018 -0.4856  0.6969  1.5306
16477SOL     OW50871   0.505   3.871   1.614 -0.1799 -0.0458 -0.3592
16477SOL    HW150872   0.484   3.949   1.562  1.7926  0.6343 -0.2254
16477SOL    HW250873   0.488   3.798   1.554  1.0281  0.6726 -1.6534
16478SOL     OW50874   2.324   2.360   7.975  0.0513 -0.5732  0.4198
16478SOL    HW150875   2.389   2.375   8.044  0.2434 -0.3360  0.1875
16478SOL    HW250876   2.357   2.410   7.900  0.8697 -2.3986 -0.4803
16479SOL     OW50877   0.282   6.204   6.014  0.4679 -0.4459  0.2991
16479SOL    HW150878   0.307   6.295   5.996 -2.6653  0.2699 -1.0946
16479SOL    HW250879   0.228   6.209   6.092  0.0415 -1.0567  0.0525
16480SOL     OW50880   0.424   2.579  10.067 -0.1040 -0.2504 -0.4461
16480SOL    HW150881   0.408   2.641   9.995 -0.3995 -1.6175 -1.5977
16480SOL    HW250882   0.448   2.497  10.024 -0.0923 -1.0586  1.0286
16481SOL     OW50883   6.557   1.874   0.550  0.3811  0.1999  0.2396
16481SOL    HW150884   6.632   1.815   0.543  0.8208  0.7715  0.1062
16481SOL    HW250885   6.509   1.863   0.468  1.0840  0.8607 -0.2694
16482SOL     OW50886   1.301   3.189  11.802 -0.0401 -0.1638 -0.4075
16482SOL    HW150887   1.390   3.161  11.821 -0.4208 -1.1749 -0.0831
16482SOL    HW250888   1.297   3.194  11.707  0.8121  1.4336 -0.3953
16483SOL     OW50889   3.967   6.963   0.392  0.3232 -0.1848 -0.0944
16483SOL    HW150890   3.885   6.915   0.380  0.9538 -1.0495 -1.0983
16483SOL    HW250891   4.031   6.895   0.413  0.6628  0.5593  1.4594
16484SOL     OW50892   5.771   6.638   7.947 -0.0976 -0.2026 -0.2194
16484SOL    HW150893   5.802   6.729   7.948 -1.2477  0.2191 -0.7355
16484SOL    HW250894   5.793   6.604   8.034 -1.5186  1.2494  0.7689
16485SOL     OW50895   0.758   5.757   4.547 -0.1518 -0.4114  0.4071
16485SOL    HW150896   0.710   5.812   4.484  0.5432 -1.1853 -0.8341
16485SOL    HW250897   0.850   5.775   4.528  0.1035 -2.1826 -0.2297
16486SOL     OW50898   5.636   1.468   3.939  0.3520 -0.2416  0.0268
16486SOL    HW150899   5.595   1.473   3.853  1.6253 -2.8381 -0.8399
16486SOL    HW250900   5.709   1.530   3.934 -0.9754  1.4067  0.1656
16487SOL     OW50901   4.622   2.765   5.315 -0.0745 -0.5974 -0.3158
16487SOL    HW150902   4.678   2.700   5.356 -0.4312 -0.6053  0.1731
16487SOL    HW250903   4.534   2.744   5.347 -0.2909 -0.3039 -0.7078
16488SOL     OW50904   6.899   7.369   0.556  0.2587  0.1351  0.1370
16488SOL    HW150905   6.987   7.405   0.550 -0.3274  1.5435 -0.7535
16488SOL    HW250906   6.875   7.351   0.465 -0.4660  0.0047  0.3483
16489SOL     OW50907   6.810   4.569   7.520 -0.2855 -0.2004 -0.3702
16489SOL    HW150908   6.890   4.518   7.510 -0.3808 -0.4960  0.2748
16489SOL    HW250909   6.745   4.506   7.551 -0.6720  0.1091 -0.5455
16490SOL     OW50910   0.633   6.089   1.501  0.0291  0.0792 -0.3108
16490SOL    HW150911   0.588   6.009   1.473 -0.1856  0.0190  0.1988
16490SOL    HW250912   0.632   6.085   1.596  0.9600  0.1663 -0.2836
16491SOL     OW50913   7.743   3.895   6.865 -0.7458  0.5955 -0.6839
16491SOL    HW150914   7.678   3.961   6.890 -1.5384  0.3969 -2.1422
16491SOL    HW250915   7.728   3.880   6.772 -0.6089 -1.6729 -0.3887
16492SOL     OW50916   3.899   7.748  12.218  0.5904  0.1383 -0.1006
16492SOL    HW150917   3.950   7.692  12.277  0.0002 -0.3912 -0.0777
16492SOL    HW250918   3.903   7.834  12.258  0.6272 -0.1117  0.4489
16493SOL     OW50919   0.250   1.034   9.215 -0.5540 -0.5336 -0.1453
16493SOL    HW150920   0.218   1.033   9.124 -1.0726  2.4772 -0.0817
16493SOL    HW250921   0.197   0.968   9.259 -2.0277 -0.3382 -1.5232
16494SOL     OW50922   2.490   1.571   2.253  0.0568 -0.0650  0.2388
16494SOL    HW150923   2.435   1.605   2.323  2.2151  1.4233  1.3382
16494SOL    HW250924   2.579   1.595   2.279  0.9259  1.4640 -3.4885
16495SOL     OW50925   1.131   4.442  11.681  0.5556  0.4165 -0.1422
16495SOL    HW150926   1.132   4.535  11.658 -0.9191  0.5673  0.3139
16495SOL    HW250927   1.179   4.437  11.763 -2.5215  1.4372  1.9044
16496SOL     OW50928   3.953   5.777   0.767 -0.1085 -0.0989 -0.0966
16496SOL    HW150929   4.007   5.854   0.782 -3.8561  2.5457  1.5057
16496SOL    HW250930   3.955   5.730   0.851 -1.3028  0.8384  0.5008
16497SOL     OW50931   2.998   2.367   4.386  0.4094 -0.4673  0.7783
16497SOL    HW150932   3.044   2.440   4.345  0.0030 -0.2769  0.6560
16497SOL    HW250933   2.963   2.404   4.467 -0.3899 -0.3331  0.3820
16498SOL     OW50934   7.359   0.897  10.215 -0.1834 -0.4746 -0.4889
16498SOL    HW150935   7.325   0.913  10.303  1.8359 -1.1346  0.4658
16498SOL    HW250936   7.284   0.914  10.157 -1.2539  1.0540  1.2394
16499SOL     OW50937   3.977   7.562   9.069  0.1381  0.1334  0.0967
16499SOL    HW150938   3.905   7.580   9.130 -1.4053 -0.0574 -1.5844
16499SOL    HW250939   4.054   7.600   9.111 -1.2864  2.1496  1.0392
16500SOL     OW50940   2.263   1.689   1.309  0.3066  0.3568 -0.2043
16500SOL    HW150941   2.322   1.756   1.344  0.6382 -0.2355  0.4033
16500SOL    HW250942   2.260   1.622   1.378 -0.6012  0.0913 -0.4855
16501SOL     OW50943   5.636   0.107  10.789  0.2363  0.5686  0.0470
16501SOL    HW150944   5.699   0.041  10.761  1.1458  1.5531 -0.3216
16501SOL    HW250945   5.664   0.187  10.745 -1.3847  1.0126 -0.2530
16502SOL     OW50946   4.385   1.254   6.677 -0.4338 -0.2554 -0.0172
16502SOL    HW150947   4.429   1.337   6.658  0.9360 -0.7504  0.8400
16502SOL    HW250948   4.297   1.265   6.641 -0.1067  1.3537 -0.4210
16503SOL     OW50949   6.594   5.627   1.976  0.1820 -0.5380 -0.4175
16503SOL    HW150950   6.582   5.545   2.024 -0.7120  0.5403  1.2923
16503SOL    HW250951   6.682   5.656   1.999 -0.1256 -0.1863  0.3356
16504SOL     OW50952   5.109   7.036   6.315  0.0652  0.0423  0.1692
16504SOL    HW150953   5.170   6.973   6.354 -1.3854 -1.9308 -0.5750
16504SOL    HW250954   5.057   7.068   6.389  0.6645  0.1980  0.5281
16505SOL     OW50955   3.180   5.743   3.990 -0.1309 -0.3371  0.0715
16505SOL    HW150956   3.102   5.782   4.030 -1.0129 -2.1277  0.1934
16505SOL    HW250957   3.231   5.817   3.958 -1.7725  0.8876  0.2074
16506SOL     OW50958   0.637   7.612   2.119  0.0722 -0.4180  0.2658
16506SOL    HW150959   0.715   7.568   2.153  0.4360 -0.7952 -1.0119
16506SOL    HW250960   0.604   7.552   2.052 -0.7335  0.2178  0.0894
16507SOL     OW50961   0.559   3.149  10.718 -0.9289 -0.0990  0.2595
16507SOL    HW150962   0.600   3.182  10.639 -2.2831 -0.6926 -0.7446
16507SOL    HW250963   0.607   3.069  10.739 -0.6720 -0.0288 -0.0576
16508SOL     OW50964   7.525   1.856   7.670  0.3332 -0.0595 -0.2502
16508SOL    HW150965   7.592   1.821   7.611 -1.0002  1.1510 -2.6451
16508SOL    HW250966   7.573   1.917   7.726  1.3883  0.1690 -1.3442
16509SOL     OW50967   6.221   3.919   5.337 -0.1988 -0.4130  0.2414
16509SOL    HW150968   6.219   3.915   5.241  0.2877 -0.9219  0.2537
16509SOL    HW250969   6.244   4.010   5.356 -2.7041  0.3664 -0.0868
16510SOL     OW50970   1.516   5.620   2.092  0.4238  0.2169 -0.1794
16510SOL    HW150971   1.472   5.648   2.173  0.2907 -1.2994  0.3023
16510SOL    HW250972   1.602   5.590   2.121 -0.2597 -2.0260 -0.2929
16511SOL     OW50973   7.716   6.061   0.511 -0.0896  0.3807  0.2993
16511SOL    HW150974   7.676   6.063   0.424  2.1474  1.2305 -0.7723
16511SOL    HW250975   7.735   6.152   0.531  0.9565  0.0454  0.9222
16512SOL     OW50976   5.618   2.015   4.823  0.1191 -0.5881  0.3898
16512SOL    HW150977   5.625   2.077   4.751 -1.0350  0.2387  0.9566
16512SOL    HW250978   5.708   1.992   4.844  0.4845 -1.5422 -1.8759
16513SOL     OW50979   4.960   0.701   0.650 -0.4517 -0.1190  0.2315
16513SOL    HW150980   4.915   0.632   0.601  0.9267 -1.1196  0.3038
16513SOL    HW250981   4.925   0.694   0.738 -1.8438  0.6836 -0.2384
16514SOL     OW50982   3.964   6.683   4.815  0.4327 -0.1120 -0.1825
16514SOL    HW150983   4.055   6.662   4.838  0.7848  1.3221 -0.1728
16514SOL    HW250984   3.936   6.745   4.882 -0.5535 -0.5125 -0.2121
16515SOL     OW50985   0.390   6.048  11.023  0.2537  0.0161 -0.4993
16515SOL    HW150986   0.439   6.055  11.105 -0.4141  4.7901 -0.1811
16515SOL    HW250987   0.442   6.097  10.959 -1.5589  0.6721 -1.5572
16516SOL     OW50988   2.285   1.470   3.254  0.1030  0.1410 -0.1469
16516SOL    HW150989   2.236   1.484   3.173  0.6316 -0.9912 -0.6876
16516SOL    HW250990   2.353   1.407   3.230  0.7598  0.3875  0.9959
16517SOL     OW50991   3.968   5.330   6.005  0.5611 -0.1728 -0.2331
16517SOL    HW150992   3.934   5.380   6.079 -0.0516  1.3021 -1.4691
16517SOL    HW250993   4.063   5.336   6.014  0.5027 -0.3586  0.6461
16518SOL     OW50994   1.181   5.028   2.451 -0.0215  0.6673 -0.5501
16518SOL    HW150995   1.244   4.967   2.490 -0.8782 -0.0303 -0.2187
16518SOL    HW250996   1.156   5.086   2.522  0.6562  1.3112 -0.8218
16519SOL     OW50997   2.857   4.573  11.063  0.3774  0.5189 -0.0276
16519SOL    HW150998   2.838   4.639  10.996  0.3419  1.6001  1.0071
16519SOL    HW250999   2.889   4.497  11.014  1.5407  1.7025 -1.2027
16520SOL     OW51000   0.870   6.337   2.226 -0.2145 -0.1849 -0.2013
16520SOL    HW151001   0.802   6.340   2.293 -1.1348  0.3149 -1.1347
16520SOL    HW251002   0.825   6.357   2.144  1.0082 -0.0977 -0.8852
16521SOL     OW51003   6.613   3.782   5.372  0.6329 -0.0394 -0.3441
16521SOL    HW151004   6.660   3.728   5.308 -3.1926 -2.2952 -1.5695
16521SOL    HW251005   6.578   3.855   5.320 -0.6384 -0.6729 -0.4065
16522SOL     OW51006   1.814   5.078   7.861  0.2480 -0.4051  0.4188
16522SOL    HW151007   1.886   5.016   7.871 -0.0645 -0.6991  0.8469
16522SOL    HW251008   1.773   5.054   7.777 -0.3045 -1.2343  0.9142
16523SOL     OW51009   6.480   5.876  11.356 -0.3800 -0.0395  0.1422
16523SOL    HW151010   6.420   5.892  11.283 -0.8629  0.6463  0.6711
16523SOL    HW251011   6.485   5.781  11.362  0.1480 -0.1166 -1.1624
16524SOL     OW51012   0.780   0.631   3.029  0.0020 -0.3565 -0.2958
16524SOL    HW151013   0.837   0.708   3.033 -2.2508  1.3740  1.4760
16524SOL    HW251014   0.766   0.616   2.935  1.9842  0.1844 -0.7204
16525SOL     OW51015   7.885   6.550   7.362 -0.0558 -0.5896 -0.2778
16525SOL    HW151016   7.824   6.543   7.436  0.4223  2.6084  0.5540
16525SOL    HW251017   7.971   6.553   7.403  0.3165 -0.3380 -1.0705
16526SOL     OW51018   0.280   3.478   8.132  0.4048  0.2605  0.9212
16526SOL    HW151019   0.333   3.408   8.094  1.3742  0.8570  1.1296
16526SOL    HW251020   0.197   3.436   8.156  0.5180 -0.5409 -0.0523
16527SOL     OW51021   7.508   2.118   5.552  0.1132  0.1961  0.0286
16527SOL    HW151022   7.462   2.197   5.582 -0.9570  0.2718 -1.6735
16527SOL    HW251023   7.579   2.151   5.496 -0.8848 -0.0071 -1.4286
16528SOL     OW51024   1.855   1.229   7.529  0.6064 -0.5116  0.0294
16528SOL    HW151025   1.863   1.279   7.448  0.6255 -0.3254  0.1457
16528SOL    HW251026   1.933   1.173   7.531 -0.4133 -2.0609 -1.1204
16529SOL     OW51027   2.339   2.807   4.761  0.3120  0.3792 -0.5212
16529SOL    HW151028   2.247   2.786   4.749  0.1944  0.7637 -0.3201
16529SOL    HW251029   2.360   2.864   4.687  0.7367 -0.7503 -1.2935
16530SOL     OW51030   5.887   6.241  12.146 -0.1267  0.0301 -0.4770
16530SOL    HW151031   5.960   6.186  12.174 -0.8339 -0.6123  0.1656
16530SOL    HW251032   5.893   6.244  12.051  0.6349 -0.1529 -0.4374
16531SOL     OW51033   2.168   6.010   5.002 -0.4228  0.1175 -0.1669
16531SOL    HW151034   2.189   5.927   4.959  2.0510  0.2536  0.6066
16531SOL    HW251035   2.206   6.076   4.945  1.0751  0.4214  1.1156
16532SOL     OW51036   0.976   1.519   3.106  0.3512 -0.1412 -0.2206
16532SOL    HW151037   0.913   1.453   3.135 -0.2718 -0.1477 -1.5188
16532SOL    HW251038   1.035   1.471   3.047  1.3846 -0.0555  0.6924
16533SOL     OW51039   4.760   6.717   0.339  0.0275 -0.0918  0.0536
16533SOL    HW151040   4.804   6.761   0.412 -0.7105  0.7043  0.0336
16533SOL    HW251041   4.830   6.702   0.275  0.0449  2.7821 -0.7593
16534SOL     OW51042   4.575   0.594   2.187 -0.1272  0.1504 -0.2573
16534SOL    HW151043   4.537   0.528   2.129  0.0429 -0.7810  0.6609
16534SOL    HW251044   4.500   0.631   2.234 -0.3506  1.4494 -1.5890
16535SOL     OW51045   5.159   5.080   4.039 -0.1581  0.5411  0.3205
16535SOL    HW151046   5.173   5.146   4.107  3.0049 -1.5608  1.9517
16535SOL    HW251047   5.120   5.006   4.084  2.9900 -1.3132  0.3147
16536SOL     OW51048   2.438   6.010   8.499 -0.1383  1.0204 -0.6240
16536SOL    HW151049   2.368   5.994   8.563  0.1666 -0.0750 -0.5482
16536SOL    HW251050   2.490   6.080   8.538 -0.4446  0.9468 -0.0698
16537SOL     OW51051   5.047   0.472   2.880 -0.0386  0.1208 -0.4800
16537SOL    HW151052   5.020   0.486   2.971  0.7298  0.0843 -0.2407
16537SOL    HW251053   5.117   0.535   2.865  0.0630 -0.0967 -0.9502
16538SOL     OW51054   0.940   3.214   8.150 -0.4371  0.1662 -0.3056
16538SOL    HW151055   0.908   3.265   8.224  0.7764 -0.2134  0.5205
16538SOL    HW251056   0.986   3.140   8.191 -1.9411 -1.4951 -1.4497
16539SOL     OW51057   1.912   4.063   3.564 -0.3079 -0.2182 -0.1953
16539SOL    HW151058   1.879   3.983   3.607  0.2976  0.4508  1.6237
16539SOL    HW251059   1.983   4.032   3.508  0.0881 -0.9527  0.6777
16540SOL     OW51060   1.080   7.282   9.845 -0.1962  0.2213  0.5351
16540SOL    HW151061   1.125   7.356   9.886 -0.4056 -0.6746  2.4705
16540SOL    HW251062   1.041   7.320   9.766 -0.2966  2.1816  1.4509
16541SOL     OW51063   2.196   0.952   0.356  0.1307  0.5557  0.6405
16541SOL    HW151064   2.244   0.918   0.432  1.2912 -0.5834 -0.5598
16541SOL    HW251065   2.260   1.005   0.309 -0.4992  1.0009  0.2681
16542SOL     OW51066   1.279   1.036   7.264  0.0746  0.0605  0.0393
16542SOL    HW151067   1.365   1.027   7.307  0.1092 -0.8308 -0.1907
16542SOL    HW251068   1.217   1.001   7.328 -0.5070  3.1966  1.3603
16543SOL     OW51069   6.085   7.217   4.492 -0.1813  0.0114  0.1555
16543SOL    HW151070   6.040   7.132   4.500  0.7741 -0.4951  0.3420
16543SOL    HW251071   6.127   7.230   4.577 -0.5197  0.8010  0.2092
16544SOL     OW51072   5.555   7.432   0.125 -0.6030 -0.1681  0.2115
16544SOL    HW151073   5.635   7.399   0.164 -0.4259  0.8587  0.7497
16544SOL    HW251074   5.578   7.519   0.092 -1.7316  0.5860  1.3070
16545SOL     OW51075   1.873   5.401   8.206 -0.0420  0.4508  0.4718
16545SOL    HW151076   1.855   5.333   8.271  0.2183  0.6963  0.8082
16545SOL    HW251077   1.861   5.483   8.254 -0.6463  0.6518 -0.0091
16546SOL     OW51078   5.178   2.425   8.645 -0.2441 -0.0440  0.8400
16546SOL    HW151079   5.182   2.332   8.624  0.3242 -0.0032  0.7277
16546SOL    HW251080   5.123   2.431   8.723 -1.2427 -0.3508  0.1797
16547SOL     OW51081   7.883   3.353   3.292 -0.0854 -0.2696 -0.2097
16547SOL    HW151082   7.851   3.397   3.370  0.4010 -0.7867  0.2904
16547SOL    HW251083   7.961   3.305   3.321  0.3672 -0.1058 -1.1068
16548SOL     OW51084   4.934   1.609   6.093 -0.8437 -0.5748  0.0594
16548SOL    HW151085   4.911   1.686   6.144 -3.3133 -1.6208  0.6709
16548SOL    HW251086   5.007   1.569   6.142  1.1068  1.7293 -0.7625
16549SOL     OW51087   5.408   7.606  10.181  0.4444  0.2775  0.0556
16549SOL    HW151088   5.355   7.528  10.165 -1.2419  1.4382 -0.2835
16549SOL    HW251089   5.372   7.644  10.261  2.1653  0.0083  1.0100
16550SOL     OW51090   4.548   1.910  11.199  0.7592  0.1493 -0.0569
16550SOL    HW151091   4.548   1.996  11.242 -0.4165 -0.9321  2.3205
16550SOL    HW251092   4.638   1.879  11.206  0.5590 -0.0955  2.0168
16551SOL     OW51093   3.244   0.952   0.274 -0.2556 -0.1480 -0.9131
16551SOL    HW151094   3.336   0.931   0.257 -0.5366 -1.2812 -1.1191
16551SOL    HW251095   3.219   0.893   0.345 -1.4297 -1.5045 -2.3828
16552SOL     OW51096   7.747   2.667   9.606  0.0834  0.0646  0.5727
16552SOL    HW151097   7.662   2.707   9.626 -0.5322 -1.5610  1.4243
16552SOL    HW251098   7.739   2.639   9.515 -1.1932 -2.0609  1.2639
16553SOL     OW51099   0.251   3.750   7.507 -0.0415  0.0627 -0.3144
16553SOL    HW151100   0.311   3.748   7.433 -0.0019  0.3018 -0.2868
16553SOL    HW251101   0.170   3.713   7.473 -0.1406  0.5205 -0.5791
16554SOL     OW51102   3.670   3.833   0.648  0.5419  0.0031  0.3503
16554SOL    HW151103   3.670   3.761   0.585 -0.4283 -0.2054  0.5694
16554SOL    HW251104   3.584   3.827   0.691  0.5488  1.1376  0.5443
16555SOL     OW51105   5.728   6.255  10.010 -0.0142 -0.1255 -0.1318
16555SOL    HW151106   5.790   6.245  10.081 -2.0689 -0.1432  1.7862
16555SOL    HW251107   5.652   6.298  10.050 -1.7332 -1.1917 -2.0229
16556SOL     OW51108   7.913   5.778   2.769  0.6334 -0.0180  0.2014
16556SOL    HW151109   7.930   5.699   2.820 -1.0387 -0.5983 -0.0874
16556SOL    HW251110   7.968   5.770   2.691  0.6979 -0.7385  0.3189
16557SOL     OW51111   6.361   5.744   4.927  0.4728  0.6098  0.1371
16557SOL    HW151112   6.437   5.727   4.872 -0.9328  0.4839 -1.8777
16557SOL    HW251113   6.351   5.839   4.927  0.6848  0.6361  0.5146
16558SOL     OW51114   0.283   0.286   5.582 -0.2522  0.2399  0.2286
16558SOL    HW151115   0.374   0.273   5.555  0.0272 -1.9344  1.9495
16558SOL    HW251116   0.286   0.365   5.636  0.5567  0.3448  0.0439
16559SOL     OW51117   0.749   0.448   8.496  0.4245  0.4498  0.3273
16559SOL    HW151118   0.803   0.409   8.427  0.9464  0.8641  0.4936
16559SOL    HW251119   0.756   0.386   8.569 -0.8392 -0.4355 -0.2675
16560SOL     OW51120   3.398   5.459   1.071 -0.4332  0.7134  0.2785
16560SOL    HW151121   3.413   5.439   1.163  1.1783  0.1702 -0.0746
16560SOL    HW251122   3.484   5.483   1.037 -0.7616 -0.2686 -1.3708
16561SOL     OW51123   4.658   0.714   0.565 -0.3185  0.1760 -0.9149
16561SOL    HW151124   4.727   0.780   0.557  1.2311 -1.5115 -2.1514
16561SOL    HW251125   4.676   0.669   0.647 -1.5827  1.4096  0.1088
16562SOL     OW51126   3.329   7.115   1.682  0.0414  1.0129  0.0679
16562SOL    HW151127   3.346   7.159   1.766 -3.3280  4.1107 -0.6003
16562SOL    HW251128   3.301   7.027   1.707  0.6396  1.3379  2.0693
16563SOL     OW51129   6.759   4.133   2.017  0.3599 -0.6770 -0.4628
16563SOL    HW151130   6.753   4.100   2.106  1.6439 -0.0243 -0.1071
16563SOL    HW251131   6.697   4.206   2.014  1.5364  0.4161  0.4604
16564SOL     OW51132   2.450   0.110   5.007  0.1480  0.0947  0.8031
16564SOL    HW151133   2.502   0.191   5.009 -2.3154  1.8568 -0.9545
16564SOL    HW251134   2.486   0.061   4.933  0.1008  0.7284  0.3523
16565SOL     OW51135   0.762   2.517   0.589 -0.5426  0.1693 -0.0669
16565SOL    HW151136   0.806   2.539   0.507 -1.2491 -0.3077 -0.5829
16565SOL    HW251137   0.749   2.602   0.632 -0.4850  0.4625 -0.6096
16566SOL     OW51138   4.024   6.119  10.792 -0.4520 -0.0569  0.4686
16566SOL    HW151139   4.022   6.036  10.840 -0.7288 -0.2954  0.0451
16566SOL    HW251140   4.108   6.158  10.817 -0.8154  0.0692  1.5541
16567SOL     OW51141   2.780   2.865   8.914 -0.3058 -0.1399 -0.2616
16567SOL    HW151142   2.777   2.956   8.944 -1.4920 -0.1003 -0.4338
16567SOL    HW251143   2.729   2.865   8.833  1.4154 -0.5821 -1.3731
16568SOL     OW51144   0.308   2.446   5.979 -0.1885  0.7539 -0.0163
16568SOL    HW151145   0.264   2.527   5.958 -0.2857  0.9907  1.0390
16568SOL    HW251146   0.274   2.421   6.065  2.7401  1.7454  1.5885
16569SOL     OW51147   6.479   2.616   3.871  0.0388  0.1631 -0.5005
16569SOL    HW151148   6.507   2.618   3.963 -1.6001  1.5515  0.0160
16569SOL    HW251149   6.538   2.677   3.827  0.0881  0.3753 -0.1409
16570SOL     OW51150   2.831   6.604  10.705  0.4510  0.3953  0.5021
16570SOL    HW151151   2.832   6.555  10.623 -1.1882 -0.9970  1.2699
16570SOL    HW251152   2.910   6.658  10.701  0.6749 -0.0111 -1.7510
16571SOL     OW51153   7.067   7.607   2.329 -0.1327  1.0450 -0.1329
16571SOL    HW151154   7.100   7.685   2.285  0.7616 -0.8997 -3.1944
16571SOL    HW251155   7.127   7.537   2.304 -1.3219 -0.8289  1.8503
16572SOL     OW51156   5.111   5.669  10.827  0.7136  0.4522  0.5842
16572SOL    HW151157   5.185   5.608  10.826  0.9323  0.7030 -0.3612
16572SOL    HW251158   5.034   5.615  10.839  0.9499  0.0463  0.2910
16573SOL     OW51159   2.817   2.469   7.784  0.5873  0.2638 -0.1224
16573SOL    HW151160   2.741   2.516   7.750  1.0703  1.2592  0.1284
16573SOL    HW251161   2.819   2.491   7.877 -0.1479 -1.6366  0.3883
16574SOL     OW51162   6.024   0.614   8.369 -0.1837 -0.0260 -0.1095
16574SOL    HW151163   6.005   0.537   8.314  0.9443 -0.0269 -0.5321
16574SOL    HW251164   6.090   0.662   8.319  1.2069 -0.2588  1.4331
16575SOL     OW51165   2.832   4.631   7.650  0.2630  0.1397 -0.5013
16575SOL    HW151166   2.824   4.621   7.555  0.2327  0.5588 -0.5490
16575SOL    HW251167   2.785   4.556   7.686 -0.1672  0.2479 -0.8182
16576SOL     OW51168   3.417   2.212   8.233 -0.0131  0.0436 -0.5274
16576SOL    HW151169   3.339   2.175   8.191 -0.9075  0.4778  0.7071
16576SOL    HW251170   3.437   2.151   8.304  0.6706  0.0484 -0.7015
16577SOL     OW51171   7.277   0.682   4.041 -0.3394  0.5101  0.5043
16577SOL    HW151172   7.194   0.656   4.001  0.4839  0.8249 -1.5317
16577SOL    HW251173   7.288   0.774   4.018  1.7309 -0.1523 -1.5049
16578SOL     OW51174   1.288   1.891   6.190  0.2742 -0.4392  0.1111
16578SOL    HW151175   1.314   1.819   6.247  2.1539  0.0227 -0.0861
16578SOL    HW251176   1.315   1.863   6.102 -0.4953 -0.1786 -0.2166
16579SOL     OW51177   7.484   0.149  10.939 -0.6611 -0.1860  0.1885
16579SOL    HW151178   7.441   0.064  10.945 -0.0829 -0.5093 -0.1646
16579SOL    HW251179   7.417   0.212  10.967 -1.6238 -0.5992 -1.0785
16580SOL     OW51180   3.974   4.068   6.363  0.3617 -0.0975  0.4836
16580SOL    HW151181   4.068   4.083   6.373  0.4967 -0.4430 -0.2158
16580SOL    HW251182   3.951   4.009   6.435  0.5187  0.6103  1.1273
16581SOL     OW51183   0.140   6.922   7.441 -0.1020 -0.6807  0.1173
16581SOL    HW151184   0.230   6.889   7.439 -0.6356 -2.1632 -1.3292
16581SOL    HW251185   0.148   7.011   7.475  1.7775 -1.1556  1.0471
16582SOL     OW51186   2.979   7.738   8.648  0.2267  0.7175 -0.1769
16582SOL    HW151187   2.924   7.690   8.709  0.5656  1.2151  0.5339
16582SOL    HW251188   2.947   7.828   8.652  0.7980  0.9200 -0.1036
16583SOL     OW51189   2.979   0.861   9.715 -0.0591  0.5787 -0.1439
16583SOL    HW151190   3.049   0.870   9.779 -1.0303 -0.4032  1.1032
16583SOL    HW251191   2.953   0.951   9.695  1.1871  0.9361 -0.2407
16584SOL     OW51192   1.669   5.681   1.828  0.4392 -0.6820  0.2579
16584SOL    HW151193   1.720   5.734   1.889 -0.5814  0.9310 -0.2258
16584SOL    HW251194   1.592   5.653   1.878  0.2480 -0.4628  0.0883
16585SOL     OW51195   0.586   4.561   6.766 -0.0071 -0.4227  0.6353
16585SOL    HW151196   0.507   4.551   6.711 -0.4339 -2.2428  1.4764
16585SOL    HW251197   0.552   4.581   6.853  0.5577  0.2908  0.6993
16586SOL     OW51198   6.345   1.214   8.303  0.2848 -0.2691  0.1231
16586SOL    HW151199   6.319   1.203   8.212  1.0919 -0.4728 -0.0843
16586SOL    HW251200   6.339   1.125   8.340  2.7428 -0.7639 -0.4865
16587SOL     OW51201   5.599   1.354   2.443 -0.4963 -0.2959  0.4127
16587SOL    HW151202   5.577   1.379   2.533 -2.4035  0.4002 -0.2241
16587SOL    HW251203   5.527   1.299   2.415 -0.1460 -0.1234 -0.8706
16588SOL     OW51204   2.014   0.856   8.309 -0.6044 -0.2250  0.6881
16588SOL    HW151205   2.013   0.823   8.399  0.0645 -1.1718  0.3540
16588SOL    HW251206   1.996   0.779   8.255  0.7589 -0.0218 -0.0884
16589SOL     OW51207   7.077   1.853   3.562  0.5357 -0.3651  0.1119
16589SOL    HW151208   7.056   1.918   3.629  0.1995 -0.0770 -0.2687
16589SOL    HW251209   7.084   1.903   3.481 -0.0487 -0.8395 -0.2409
16590SOL     OW51210   3.674   0.532  10.116  0.1323 -0.5343 -0.1671
16590SOL    HW151211   3.675   0.627  10.127  2.3575 -0.2533 -2.0191
16590SOL    HW251212   3.621   0.517  10.038  1.1161 -0.6259 -0.8385
16591SOL     OW51213   4.665   6.490   1.298 -0.3461  0.0375  0.2573
16591SOL    HW151214   4.704   6.404   1.283  2.0185  1.2791 -1.2808
16591SOL    HW251215   4.572   6.478   1.276 -0.2837 -2.2806  0.9856
16592SOL     OW51216   7.515   2.539   2.458 -0.1489 -0.3278 -0.4154
16592SOL    HW151217   7.428   2.511   2.484 -0.1978 -0.2970 -0.5430
16592SOL    HW251218   7.571   2.464   2.476 -0.2924 -0.5368 -0.8275
16593SOL     OW51219   5.255   3.313  10.142  0.3957 -0.4248  0.1335
16593SOL    HW151220   5.309   3.285  10.215  0.1987  0.2764  0.5571
16593SOL    HW251221   5.274   3.250  10.072  2.3657  0.2956 -0.0124
16594SOL     OW51222   4.722   0.177   5.997 -0.2647  0.3032  0.1262
16594SOL    HW151223   4.791   0.230   5.955 -0.2690 -0.1813 -0.5023
16594SOL    HW251224   4.653   0.240   6.017 -0.1095  0.6068 -0.2703
16595SOL     OW51225   1.354   3.644   6.333 -0.2977 -0.4924 -0.3226
16595SOL    HW151226   1.364   3.684   6.247 -0.0418  1.0946  0.4186
16595SOL    HW251227   1.333   3.717   6.392 -1.4737 -1.6671  0.7964
16596SOL     OW51228   1.838   0.986   1.211  0.0202 -0.0776 -0.5221
16596SOL    HW151229   1.874   0.978   1.299 -0.2359 -1.0161 -0.4916
16596SOL    HW251230   1.892   0.927   1.158 -0.2058  0.0316 -0.8762
16597SOL     OW51231   5.803   4.414   2.403 -0.5036 -0.1173  0.2806
16597SOL    HW151232   5.716   4.449   2.386 -1.2649 -2.2698 -0.4986
16597SOL    HW251233   5.863   4.480   2.368 -1.8668  0.3617 -1.2459
16598SOL     OW51234   3.907   6.194   0.108 -0.5989  0.1458 -0.1246
16598SOL    HW151235   3.861   6.112   0.125  1.1627 -0.8388  0.1310
16598SOL    HW251236   3.948   6.216   0.192 -0.0991  0.6498 -0.4962
16599SOL     OW51237   2.921   6.671   8.308 -0.4099 -0.7968 -0.1221
16599SOL    HW151238   2.904   6.578   8.322 -0.0746 -0.5105  3.0391
16599SOL    HW251239   2.835   6.710   8.293 -0.8480 -1.3434  0.8914
16600SOL     OW51240   6.597   0.487   8.601  0.3913 -0.0099  0.2997
16600SOL    HW151241   6.586   0.408   8.653  1.6297 -0.8784 -0.6888
16600SOL    HW251242   6.516   0.494   8.550  1.6468 -2.8773 -2.4491
16601SOL     OW51243   4.803   1.176   8.135 -0.2317 -0.3159  0.2276
16601SOL    HW151244   4.773   1.234   8.065  0.9048 -0.7573 -0.6641
16601SOL    HW251245   4.729   1.116   8.149 -0.0625 -1.0018 -1.4814
16602SOL     OW51246   7.177   7.103   0.749  0.5247 -0.3468 -0.9193
16602SOL    HW151247   7.138   7.151   0.676 -0.4021 -0.2559 -0.3841
16602SOL    HW251248   7.260   7.070   0.714 -0.4502 -1.3604 -2.4168
16603SOL     OW51249   4.520   3.999   9.904  0.5570  0.4398  0.1400
16603SOL    HW151250   4.548   3.972   9.816  0.8402 -0.2853  0.4494
16603SOL    HW251251   4.534   3.922   9.959 -0.3513  0.6335  0.6749
16604SOL     OW51252   4.322   3.320  11.295 -0.4541  0.5216  0.4741
16604SOL    HW151253   4.409   3.339  11.260 -0.9803  0.0847 -1.1619
16604SOL    HW251254   4.281   3.406  11.306 -0.8213  0.6678 -1.5566
16605SOL     OW51255   1.947   4.208   9.127  0.1439  0.8900 -0.0958
16605SOL    HW151256   2.029   4.197   9.078 -1.1233 -1.5431 -1.8598
16605SOL    HW251257   1.975   4.237   9.214  3.0527 -1.6005 -0.0540
16606SOL     OW51258   1.264   6.931   8.315 -0.2662  0.0081  0.0171
16606SOL    HW151259   1.171   6.953   8.322 -0.1698  0.3650  0.1692
16606SOL    HW251260   1.301   6.999   8.259 -0.1649 -0.3360 -0.3405
16607SOL     OW51261   3.976   5.729   8.189  0.0840 -0.1356 -0.3694
16607SOL    HW151262   4.000   5.822   8.189  2.4740 -0.6830  0.0168
16607SOL    HW251263   4.017   5.694   8.110 -2.2554 -0.5868 -1.4519
16608SOL     OW51264   3.770   2.694   0.469 -0.0949  0.5710  0.0904
16608SOL    HW151265   3.681   2.696   0.504  0.2026 -0.3213  0.9285
16608SOL    HW251266   3.758   2.699   0.374 -0.9994  1.1114  0.2149
16609SOL     OW51267   1.906   7.203   8.713  0.1187  1.0038 -0.4505
16609SOL    HW151268   1.850   7.261   8.765 -1.0959  0.4069 -1.0577
16609SOL    HW251269   1.903   7.120   8.759 -0.2890  0.7053 -0.9979
16610SOL     OW51270   2.885   4.021   2.694 -0.0564 -0.3096 -0.2991
16610SOL    HW151271   2.803   4.040   2.648 -1.0522 -1.8656  0.7521
16610SOL    HW251272   2.906   4.103   2.739 -1.9627 -0.3444  0.7674
16611SOL     OW51273   5.707   4.955   7.903  0.0529 -0.6957  0.3267
16611SOL    HW151274   5.649   4.943   7.978 -0.6476 -0.6672 -0.2065
16611SOL    HW251275   5.670   4.901   7.834  1.6509 -2.0897  0.4833
16612SOL     OW51276   1.526   2.037   5.140 -0.0459  0.4509  0.1764
16612SOL    HW151277   1.570   2.064   5.221  2.3634  0.1527 -0.9570
16612SOL    HW251278   1.521   2.118   5.088  0.3933  0.2092 -0.2426
16613SOL     OW51279   1.615   6.422  12.365  0.6346 -0.4023 -0.1019
16613SOL    HW151280   1.529   6.435  12.324  1.2154  1.9733 -0.6949
16613SOL    HW251281   1.671   6.390  12.294  0.3385 -1.7880  0.2465
16614SOL     OW51282   6.370   2.275   7.069  0.0173 -0.5113  0.4355
16614SOL    HW151283   6.349   2.185   7.046 -1.8145  0.3877 -1.8791
16614SOL    HW251284   6.314   2.294   7.144 -2.2271 -0.3775 -1.1586
16615SOL     OW51285   4.048   5.578   6.859 -0.0070 -0.3796  0.3900
16615SOL    HW151286   3.956   5.553   6.846  0.1779 -0.4864 -0.8438
16615SOL    HW251287   4.081   5.516   6.924  0.0462 -2.4185 -1.4941
16616SOL     OW51288   6.257   0.155   0.990  0.2351  0.0397  0.4896
16616SOL    HW151289   6.297   0.121   1.069  1.3808  1.7094  0.6653
16616SOL    HW251290   6.281   0.248   0.988 -1.2012  0.4320 -0.9257
16617SOL     OW51291   0.428   4.669  11.853 -0.6709 -0.1353 -0.0787
16617SOL    HW151292   0.476   4.727  11.912 -0.8181 -0.7005  0.6075
16617SOL    HW251293   0.379   4.728  11.796  0.5783  0.4604 -0.5970
16618SOL     OW51294   2.286   5.467   5.515  0.0259 -0.0654 -0.2599
16618SOL    HW151295   2.255   5.471   5.606 -1.6043 -0.9809 -0.7372
16618SOL    HW251296   2.229   5.527   5.467  0.1291 -0.4431 -0.8655
16619SOL     OW51297   2.867   6.869   2.148  0.0406  0.3370  0.5128
16619SOL    HW151298   2.859   6.813   2.226  0.5551  1.7170  1.6031
16619SOL    HW251299   2.800   6.936   2.160 -0.1844  0.3025 -0.4908
16620SOL     OW51300   5.316   4.550   5.935 -0.0054  0.0426 -0.0218
16620SOL    HW151301   5.270   4.468   5.948 -2.1201  1.1547 -0.0655
16620SOL    HW251302   5.351   4.545   5.846  0.4266 -1.0239  0.1922
16621SOL     OW51303   3.471   5.477  12.169  0.0946  0.1274  0.2732
16621SOL    HW151304   3.411   5.532  12.220 -1.5396 -1.4588  0.1663
16621SOL    HW251305   3.481   5.398  12.221  0.3951 -0.5041 -0.7191
16622SOL     OW51306   6.680   5.210  11.923  0.0109 -0.1562  0.3083
16622SOL    HW151307   6.646   5.225  12.011  1.5889 -1.6410  1.2429
16622SOL    HW251308   6.661   5.118  11.905  1.2522 -0.3400 -0.1578
16623SOL     OW51309   4.909   0.440   5.002 -0.0369 -0.0321 -0.0174
16623SOL    HW151310   4.844   0.469   4.938  1.2265  0.5430 -1.0905
16623SOL    HW251311   4.965   0.379   4.954  1.1553  0.6868  0.3939
16624SOL     OW51312   5.755   6.970  11.926 -0.0476  0.1036  0.1047
16624SOL    HW151313   5.740   6.961  12.020 -1.0958  2.2676  0.2229
16624SOL    HW251314   5.802   7.053  11.918  0.5652 -0.3515 -1.2519
16625SOL     OW51315   4.117   1.678   4.050 -0.2645 -0.7265 -0.2413
16625SOL    HW151316   4.126   1.700   3.957 -0.0270  0.1956 -0.0068
16625SOL    HW251317   4.082   1.589   4.050  2.1003 -1.7272 -1.2038
16626SOL     OW51318   4.099   6.717   8.239  0.5276  0.4109 -0.1958
16626SOL    HW151319   4.036   6.756   8.179 -0.2645 -2.0145 -1.0549
16626SOL    HW251320   4.089   6.767   8.320 -1.9829  0.5706 -0.5258
16627SOL     OW51321   0.593   5.867   6.642  0.1493  0.5654 -0.3405
16627SOL    HW151322   0.653   5.810   6.594  1.6431  1.1059  0.7851
16627SOL    HW251323   0.515   5.871   6.587  0.5051 -1.4476 -1.1019
16628SOL     OW51324   5.284   5.942   5.477  0.0856  0.2269  0.2996
16628SOL    HW151325   5.325   6.028   5.483 -0.1755  0.5329 -1.5110
16628SOL    HW251326   5.248   5.925   5.564  4.3762 -0.2820  2.2102
16629SOL     OW51327   0.727   7.059  11.460  0.1773  0.0947  0.1456
16629SOL    HW151328   0.656   7.021  11.408 -0.2169  0.9301  0.0567
16629SOL    HW251329   0.753   6.988  11.519 -1.0456 -0.0933  0.5001
16630SOL     OW51330   3.518   6.609   3.483  0.6186  0.2291 -0.5297
16630SOL    HW151331   3.516   6.623   3.388 -2.0029  0.3685 -0.5300
16630SOL    HW251332   3.484   6.521   3.495 -0.3431  0.6952  0.3111
16631SOL     OW51333   4.130   5.852   8.916 -0.5282  0.0108  0.3520
16631SOL    HW151334   4.065   5.847   8.986  0.7114  0.0822  1.5693
16631SOL    HW251335   4.210   5.815   8.955  0.1817 -0.0193 -1.0580
16632SOL     OW51336   4.781   0.993  10.241 -0.3335  0.5060  0.0824
16632SOL    HW151337   4.838   1.002  10.317 -0.7295  0.5358  0.3823
16632SOL    HW251338   4.832   0.941  10.178 -0.2694 -0.1425  0.6544
16633SOL     OW51339   7.163   6.612   0.333 -0.7565  0.1810 -0.4927
16633SOL    HW151340   7.085   6.579   0.377 -0.3818 -1.2474 -0.8307
16633SOL    HW251341   7.164   6.706   0.351 -1.1184 -0.2015  1.7473
16634SOL     OW51342   4.330   4.499   9.361  0.1805  0.4795  0.0500
16634SOL    HW151343   4.262   4.555   9.324  1.4081  2.0010 -0.0542
16634SOL    HW251344   4.286   4.445   9.426 -1.3738  0.3091 -1.1032
16635SOL     OW51345   3.894   2.552   9.973 -0.0578  0.3698 -0.9090
16635SOL    HW151346   3.873   2.640  10.005 -2.3045 -0.4203  0.0259
16635SOL    HW251347   3.843   2.544   9.892  0.2552 -0.0294 -1.0670
16636SOL     OW51348   6.230   1.936   1.796 -0.1077 -0.0113 -0.4270
16636SOL    HW151349   6.325   1.922   1.793 -0.0552 -0.5582  1.9057
16636SOL    HW251350   6.193   1.864   1.745  0.7287  0.8146 -2.2830
16637SOL     OW51351   1.826   1.518   2.794  0.1496  0.6032 -0.7466
16637SOL    HW151352   1.732   1.530   2.804  0.3613  1.6899  0.1685
16637SOL    HW251353   1.862   1.539   2.880  1.2132 -0.0505 -1.0135
16638SOL     OW51354   6.211   4.147  11.536  0.0392  0.0097  0.1401
16638SOL    HW151355   6.131   4.171  11.490 -0.7428 -0.8153  1.0334
16638SOL    HW251356   6.281   4.187  11.484 -0.7053 -1.5269 -2.2287
16639SOL     OW51357   2.161   5.755   3.760 -0.2519 -0.1069  0.0482
16639SOL    HW151358   2.104   5.723   3.690 -0.5097  1.4537 -0.4886
16639SOL    HW251359   2.221   5.683   3.777 -1.9961 -1.5798  0.2218
16640SOL     OW51360   7.771   2.601  11.439  0.6432  0.1449 -0.3132
16640SOL    HW151361   7.680   2.626  11.448  0.2018 -0.8399 -1.7016
16640SOL    HW251362   7.809   2.614  11.526 -1.3124 -1.3583  0.8467
16641SOL     OW51363   0.249   2.992   9.550 -0.9494 -0.3683  0.3605
16641SOL    HW151364   0.342   2.995   9.573 -0.9727 -1.8836  0.7297
16641SOL    HW251365   0.239   2.910   9.502 -1.9439  0.2052 -0.4601
16642SOL     OW51366   3.401   6.056   5.703 -0.1437 -0.0673 -0.4716
16642SOL    HW151367   3.340   6.110   5.752 -1.0542 -0.6120 -0.9729
16642SOL    HW251368   3.399   6.091   5.614  1.5108  0.9264 -0.1522
16643SOL     OW51369   4.114   7.769   4.966  0.5598 -0.5992 -0.1088
16643SOL    HW151370   4.124   7.755   4.872  2.3009 -0.2772 -0.0160
16643SOL    HW251371   4.054   7.700   4.994 -0.7387 -0.1302 -1.5759
16644SOL     OW51372   0.563   5.574   8.873  0.2824 -1.0905 -1.1901
16644SOL    HW151373   0.491   5.514   8.890 -0.3151 -0.1367 -0.1482
16644SOL    HW251374   0.521   5.659   8.861  1.2730 -0.0493  1.7469
16645SOL     OW51375   5.937   2.999   5.034 -0.1666  0.0519  0.0122
16645SOL    HW151376   5.927   2.937   4.962  1.4403  1.1540 -1.2376
16645SOL    HW251377   5.870   3.065   5.019 -0.6487 -0.3690  0.2711
16646SOL     OW51378   7.352   1.760   3.065 -0.2764 -0.1887  0.3746
16646SOL    HW151379   7.329   1.847   3.099  0.1611  0.3102 -0.5587
16646SOL    HW251380   7.429   1.735   3.115 -0.7820 -0.3358  1.0988
16647SOL     OW51381   1.902   3.061   8.594  0.6306  0.2397  0.3996
16647SOL    HW151382   1.975   3.119   8.615  0.0211  0.6197  1.5422
16647SOL    HW251383   1.941   2.993   8.540  1.4110  1.5742 -0.7931
16648SOL     OW51384   1.346   0.743   3.217 -0.1577 -0.0518 -0.3360
16648SOL    HW151385   1.265   0.729   3.266  0.2931  0.6596  0.6577
16648SOL    HW251386   1.330   0.821   3.164 -0.2054 -0.0621 -0.3362
16649SOL     OW51387   7.453   3.642   4.861  0.2423 -0.0451  0.0995
16649SOL    HW151388   7.475   3.640   4.768  2.8932  1.3910  0.6154
16649SOL    HW251389   7.432   3.734   4.879  1.9154  0.1416  1.3239
16650SOL     OW51390   5.241   0.726   3.910 -0.1474  0.2684 -0.2114
16650SOL    HW151391   5.283   0.737   3.824  0.2786 -1.3184 -0.2326
16650SOL    HW251392   5.301   0.671   3.960 -1.1010 -0.0931  0.5801
16651SOL     OW51393   3.541   4.608   0.245  0.2594 -0.4777 -0.1667
16651SOL    HW151394   3.484   4.573   0.313 -0.8695  0.3939 -0.6319
16651SOL    HW251395   3.559   4.534   0.187 -1.1727 -0.5707 -0.5254
16652SOL     OW51396   2.963   0.210  12.119  0.8958 -0.0616 -0.6673
16652SOL    HW151397   2.942   0.116  12.124  1.4419 -0.1198  0.9747
16652SOL    HW251398   2.891   0.253  12.164  0.2074  0.4161 -2.1580
16653SOL     OW51399   3.296   7.280  12.053 -0.4512  0.6005 -0.7078
16653SOL    HW151400   3.378   7.323  12.077 -1.3186  1.3826  0.9642
16653SOL    HW251401   3.228   7.345  12.070 -1.5309 -0.4396 -0.9181
16654SOL     OW51402   5.592   5.904   1.420  0.2775 -0.0167  0.3020
16654SOL    HW151403   5.677   5.916   1.464 -0.0637  2.4907  0.4049
16654SOL    HW251404   5.607   5.934   1.331 -0.4017  0.0683  0.2149
16655SOL     OW51405   4.540   6.107   2.615 -0.2400 -0.5855 -0.2194
16655SOL    HW151406   4.545   6.200   2.634  0.5874 -0.3181 -1.5687
16655SOL    HW251407   4.629   6.084   2.586 -0.9051 -1.3195 -1.8335
16656SOL     OW51408   1.368   6.375   7.292  0.3006 -0.6359 -0.4268
16656SOL    HW151409   1.448   6.418   7.319  0.5919 -1.2623 -0.2653
16656SOL    HW251410   1.391   6.282   7.287 -0.2915 -0.7699 -0.8225
16657SOL     OW51411   5.086   2.503   8.373 -0.1691  0.1050  0.2624
16657SOL    HW151412   5.121   2.508   8.461 -0.0529  0.9195  0.1750
16657SOL    HW251413   4.991   2.496   8.385 -0.4340  3.0351  0.4448
16658SOL     OW51414   5.137   1.919   0.375 -0.3829  0.3559 -0.0060
16658SOL    HW151415   5.151   2.005   0.415 -0.8905  1.6258 -2.3488
16658SOL    HW251416   5.221   1.874   0.384  0.7591  2.1691 -1.0895
16659SOL     OW51417   5.720   0.817   8.070  0.1154  0.0087 -0.0839
16659SOL    HW151418   5.700   0.908   8.095  0.5714 -0.1902  1.0605
16659SOL    HW251419   5.806   0.822   8.029 -0.6385  0.3374 -1.7358
16660SOL     OW51420   2.128   5.047   4.447 -0.2744 -0.0255  0.0757
16660SOL    HW151421   2.224   5.045   4.441 -0.3664 -0.3627 -2.0135
16660SOL    HW251422   2.101   5.104   4.375 -1.6558  0.3238  0.8297
16661SOL     OW51423   4.365   2.354   3.131  0.0783  0.0505 -0.0821
16661SOL    HW151424   4.340   2.410   3.058 -0.3524 -1.0314 -0.7939
16661SOL    HW251425   4.439   2.303   3.097 -1.6036 -2.1614 -0.6473
16662SOL     OW51426   1.372   2.061   1.467  0.0426 -0.4458 -0.1677
16662SOL    HW151427   1.421   2.096   1.393  0.6129 -1.3504 -0.2306
16662SOL    HW251428   1.433   2.066   1.541 -0.5331  0.4812  0.2604
16663SOL     OW51429   0.497   5.962   3.632 -0.4295  0.2370  0.1745
16663SOL    HW151430   0.545   5.880   3.642 -1.3561 -0.0589  3.0231
16663SOL    HW251431   0.435   5.945   3.561 -1.1731 -1.8749  1.2586
16664SOL     OW51432   2.631   0.831   1.031 -0.0473 -0.0685  0.1809
16664SOL    HW151433   2.651   0.764   0.966 -0.4075 -1.5893  1.5675
16664SOL    HW251434   2.713   0.842   1.080  0.9498  2.7818 -1.8972
16665SOL     OW51435   3.179   6.649   3.086 -0.2950 -0.5254  0.6839
16665SOL    HW151436   3.118   6.710   3.044  1.6226  0.7185 -0.4418
16665SOL    HW251437   3.129   6.614   3.160 -2.1835  0.8242  0.1526
16666SOL     OW51438   4.252   5.747   6.769 -0.3573 -0.2700  0.0254
16666SOL    HW151439   4.202   5.795   6.704  0.9559  0.1705 -0.6889
16666SOL    HW251440   4.186   5.698   6.819 -1.5227  0.6732 -0.5515
16667SOL     OW51441   2.885   3.922  12.240  0.1826  0.5290 -0.6878
16667SOL    HW151442   2.899   3.979  12.316  0.0853  1.3856 -1.2880
16667SOL    HW251443   2.864   3.837  12.277  0.0833  0.9463  0.2504
16668SOL     OW51444   7.328   5.749   7.594 -0.0164  0.3103 -0.3192
16668SOL    HW151445   7.259   5.799   7.637 -0.4439 -0.3848 -0.1714
16668SOL    HW251446   7.388   5.815   7.559 -0.6319  0.9175 -0.2496
16669SOL     OW51447   2.688   2.875   2.627  0.0217  0.2005 -0.2713
16669SOL    HW151448   2.653   2.881   2.538 -0.4600  1.7921 -0.0108
16669SOL    HW251449   2.757   2.941   2.630 -0.6497  0.9018  0.8013
16670SOL     OW51450   0.241   4.168   8.492 -0.1913  0.2131 -0.0143
16670SOL    HW151451   0.174   4.105   8.466  0.7412 -0.5648 -0.5981
16670SOL    HW251452   0.276   4.201   8.410  2.0803 -1.5089  0.1885
16671SOL     OW51453   4.112   6.607  11.127 -0.1727  0.4334  0.0951
16671SOL    HW151454   4.150   6.521  11.105 -2.0517  0.0070 -1.7553
16671SOL    HW251455   4.065   6.592  11.209 -1.7159 -0.7650 -0.9471
16672SOL     OW51456   4.368   2.658   3.251  0.1278  0.2591 -0.2831
16672SOL    HW151457   4.294   2.627   3.302 -0.0312  0.1399 -0.5827
16672SOL    HW251458   4.331   2.724   3.192  0.8100  2.7990  1.8872
16673SOL     OW51459   3.387   6.969  11.572  0.3366 -0.8609 -0.2258
16673SOL    HW151460   3.363   7.061  11.587  2.5739 -0.3164  0.4676
16673SOL    HW251461   3.304   6.923  11.564 -0.8524  1.1077  0.2135
16674SOL     OW51462   0.678   7.707   2.960 -0.0032  0.2425 -0.2577
16674SOL    HW151463   0.644   7.646   3.025 -1.1651  0.1848 -0.8920
16674SOL    HW251464   0.617   7.780   2.961 -0.2710  0.0634 -1.5286
16675SOL     OW51465   6.669   1.711  11.661  0.2189 -0.1941  0.2065
16675SOL    HW151466   6.733   1.751  11.720 -0.4064  0.2210  0.6223
16675SOL    HW251467   6.693   1.618  11.659  1.5480  0.1309 -0.5816
16676SOL     OW51468   6.665   7.539  11.780 -0.1941 -0.5026  0.3749
16676SOL    HW151469   6.641   7.466  11.723 -0.4111  0.2689 -0.5579
16676SOL    HW251470   6.662   7.503  11.868 -2.8802 -0.9536  0.1726
16677SOL     OW51471   6.120   6.523  11.337  0.3819  1.0060 -0.1402
16677SOL    HW151472   6.026   6.502  11.330  0.4829  0.3249  0.4332
16677SOL    HW251473   6.148   6.535  11.246  0.4507 -2.1279 -0.6755
16678SOL     OW51474   4.796   0.105   4.146  0.5721 -0.4201 -0.0855
16678SOL    HW151475   4.877   0.092   4.097 -0.7504 -1.3037 -2.1849
16678SOL    HW251476   4.782   0.200   4.144  0.9439 -0.3759 -0.7321
16679SOL     OW51477   1.416   2.538  11.418 -0.5462  0.0644 -0.5569
16679SOL    HW151478   1.475   2.502  11.352 -0.1083  0.8547 -0.5993
16679SOL    HW251479   1.474   2.576  11.484 -0.9808 -0.4750  0.1619
16680SOL     OW51480   0.937   2.625   9.881 -0.2079  0.2899 -0.4036
16680SOL    HW151481   0.981   2.661   9.958 -0.6662  0.6759 -0.3180
16680SOL    HW251482   0.934   2.530   9.898 -0.9392  0.4350  0.4062
16681SOL     OW51483   1.184   4.545   0.420  0.1900 -0.2464 -0.4486
16681SOL    HW151484   1.192   4.562   0.513  0.9350 -2.6455  0.0057
16681SOL    HW251485   1.235   4.465   0.406 -1.2138 -0.8532 -2.6165
16682SOL     OW51486   4.263   7.429   2.317  0.0605 -0.2970 -0.6659
16682SOL    HW151487   4.192   7.460   2.372 -0.7027 -0.8587 -1.3179
16682SOL    HW251488   4.335   7.490   2.335 -1.0977  1.3085 -1.2276
16683SOL     OW51489   0.479   1.253   5.089  0.0606 -0.1161 -0.5155
16683SOL    HW151490   0.474   1.241   5.184 -1.0478  0.2001 -0.5164
16683SOL    HW251491   0.570   1.234   5.067  0.6953  1.2253  0.8109
16684SOL     OW51492   5.552   7.907   9.250 -0.0012  0.4266  0.4568
16684SOL    HW151493   5.607   7.984   9.262 -0.8714  1.0849  0.3508
16684SOL    HW251494   5.610   7.833   9.268  1.4078  0.9938 -1.4314
16685SOL     OW51495   4.170   6.953   4.017  0.7965  0.2487  0.1786
16685SOL    HW151496   4.104   7.022   4.008 -0.1183 -0.7181 -0.8076
16685SOL    HW251497   4.221   6.979   4.094 -0.4360  1.2691  0.6904
16686SOL     OW51498   5.520   7.169  11.014  0.6288 -0.2539 -0.2326
16686SOL    HW151499   5.428   7.178  10.988  0.5502 -1.8393 -0.6472
16686SOL    HW251500   5.547   7.086  10.975  2.5461  0.6588 -0.9409
16687SOL     OW51501   5.490   1.633   2.483 -0.7993  0.4378 -0.2575
16687SOL    HW151502   5.425   1.607   2.548 -0.9975  2.0410  0.2171
16687SOL    HW251503   5.440   1.642   2.402 -1.3060  2.2163  0.2279
16688SOL     OW51504   4.290   5.786   9.286 -0.0806  0.3492 -0.0998
16688SOL    HW151505   4.256   5.733   9.214  1.5247 -0.6794 -0.1634
16688SOL    HW251506   4.287   5.728   9.362  0.3712  0.6508  0.1544
16689SOL     OW51507   7.861   0.660  12.067 -0.3147 -0.0343 -0.4528
16689SOL    HW151508   7.934   0.716  12.091 -0.5682 -0.0652  0.4229
16689SOL    HW251509   7.783   0.713  12.083 -0.5521 -0.5999  0.3262
16690SOL     OW51510   4.765   7.216   6.124  0.1969  0.6399 -0.4422
16690SOL    HW151511   4.859   7.206   6.139 -0.2100 -1.8426  0.9808
16690SOL    HW251512   4.728   7.231   6.211 -0.7984  0.7230 -0.8627
16691SOL     OW51513   2.161   0.932   6.527  0.4779  0.3073  0.3761
16691SOL    HW151514   2.227   0.995   6.554  0.9695 -1.1130  2.7260
16691SOL    HW251515   2.210   0.851   6.511 -0.4209 -0.1566 -0.1350
16692SOL     OW51516   7.308   5.030   7.780  0.1580  0.3729  0.2451
16692SOL    HW151517   7.296   4.951   7.832 -1.0263  0.6712  0.4640
16692SOL    HW251518   7.354   5.091   7.839  0.5353  0.0618  0.2775
16693SOL     OW51519   0.339   1.499   8.060 -0.1361 -0.2763 -0.3246
16693SOL    HW151520   0.428   1.517   8.092 -0.2973  1.2956 -0.6666
16693SOL    HW251521   0.305   1.433   8.120  0.3011  1.0966  1.5325
16694SOL     OW51522   4.746   1.379  10.046 -0.3506 -0.5326  0.0997
16694SOL    HW151523   4.672   1.364   9.988  0.9601  1.5496 -2.3605
16694SOL    HW251524   4.822   1.345   9.997  0.6628  0.2029  1.1075
16695SOL     OW51525   0.147   5.146   6.644 -0.2203  0.0956 -0.5446
16695SOL    HW151526   0.158   5.233   6.682 -0.7506  0.9258 -2.2052
16695SOL    HW251527   0.142   5.087   6.720 -1.1180  1.6469  0.6605
16696SOL     OW51528   2.746   0.176  11.218 -0.0732  0.2519  0.0285
16696SOL    HW151529   2.795   0.098  11.242 -1.9416 -1.0837 -0.3112
16696SOL    HW251530   2.799   0.249  11.251  0.8874 -1.2052  1.8739
16697SOL     OW51531   4.106   0.654   1.798 -0.3933 -0.2543  0.3820
16697SOL    HW151532   4.058   0.582   1.757 -1.8458  1.0674 -0.3585
16697SOL    HW251533   4.127   0.622   1.886 -3.0585 -0.7816  0.9233
16698SOL     OW51534   7.644   0.077   0.396 -0.3374  0.1097 -0.1711
16698SOL    HW151535   7.584   0.067   0.470 -1.7562 -2.6872 -1.5600
16698SOL    HW251536   7.728   0.043   0.428 -0.1755  1.4226  0.9070
16699SOL     OW51537   0.791   7.437   5.973 -0.6146  0.6817 -0.3868
16699SOL    HW151538   0.831   7.419   6.059  0.2630  3.2759 -0.1782
16699SOL    HW251539   0.758   7.526   5.980  1.0054  1.6336 -3.2876
16700SOL     OW51540   7.310   0.572   8.668  0.1367 -0.0389  0.0740
16700SOL    HW151541   7.226   0.604   8.637  0.2012  0.9157  0.8303
16700SOL    HW251542   7.356   0.650   8.699  1.0100 -0.6383  0.3529
16701SOL     OW51543   4.942   5.093   9.278 -0.0328  0.0676  0.5700
16701SOL    HW151544   5.009   5.088   9.211  0.6915  0.5623  1.2340
16701SOL    HW251545   4.861   5.071   9.233  0.6324 -1.0194 -0.1426
16702SOL     OW51546   3.720   1.682  10.195 -0.2192  0.7431 -0.0444
16702SOL    HW151547   3.754   1.767  10.167 -0.8668  0.5028 -1.7444
16702SOL    HW251548   3.631   1.680  10.159  0.2909 -1.2185 -1.3684
16703SOL     OW51549   4.355   1.510  11.757 -0.0205 -0.1632 -0.0346
16703SOL    HW151550   4.300   1.527  11.833 -0.1588 -2.3202  0.4034
16703SOL    HW251551   4.336   1.582  11.697 -4.1303 -1.2384 -0.3398
16704SOL     OW51552   3.391   6.431   9.699  0.3151 -0.6891 -0.2896
16704SOL    HW151553   3.333   6.377   9.646  1.3025 -1.9298 -0.1306
16704SOL    HW251554   3.416   6.375   9.772  2.1878 -0.3958 -0.6648
16705SOL     OW51555   1.992   4.341   4.142  0.0883  0.3097  0.3182
16705SOL    HW151556   2.074   4.307   4.105 -0.4873 -0.0837 -0.6195
16705SOL    HW251557   2.020   4.413   4.198  1.0845  0.1480  0.0578
16706SOL     OW51558   1.247   4.628   4.378  0.8434 -0.1501  0.3998
16706SOL    HW151559   1.328   4.604   4.424  0.6333  1.8779  1.9967
16706SOL    HW251560   1.254   4.723   4.367 -1.1740  0.0195  0.2962
16707SOL     OW51561   3.627   7.098  11.921  1.1332 -0.3354  0.3772
16707SOL    HW151562   3.534   7.085  11.904  0.9558 -0.2757  1.2690
16707SOL    HW251563   3.643   7.189  11.897  1.0929 -0.4988 -0.3041
16708SOL     OW51564   5.464   5.666   1.848  0.2326 -0.3172 -1.1253
16708SOL    HW151565   5.552   5.646   1.879 -0.9752 -2.4413  1.3043
16708SOL    HW251566   5.471   5.667   1.752  2.5960 -1.9296 -1.0406
16709SOL     OW51567   5.312   6.603   7.576 -0.0578 -0.2898  0.6729
16709SOL    HW151568   5.406   6.599   7.559  0.1181 -1.5137  1.7940
16709SOL    HW251569   5.302   6.672   7.642 -0.2351  1.3191 -0.9385
16710SOL     OW51570   7.644   0.820   4.228 -0.4006  0.4534  0.1886
16710SOL    HW151571   7.674   0.832   4.319  1.3959  0.4623 -0.3596
16710SOL    HW251572   7.622   0.907   4.198 -2.2463  0.2974  0.9911
16711SOL     OW51573   1.016   2.119  10.289  0.8645 -0.6263  0.2131
16711SOL    HW151574   1.019   2.180  10.215  1.5392 -1.2167 -0.2590
16711SOL    HW251575   1.046   2.170  10.364 -1.0523  0.3501  0.3716
16712SOL     OW51576   2.740   1.223   9.810 -0.4883 -0.3638  0.0145
16712SOL    HW151577   2.836   1.224   9.807 -0.4991 -0.4707 -0.7675
16712SOL    HW251578   2.716   1.141   9.767 -0.9438  0.3165 -1.0961
16713SOL     OW51579   5.993   0.126   1.575 -0.7102  0.2361  0.0484
16713SOL    HW151580   5.996   0.160   1.485 -1.6979 -1.4654 -0.6758
16713SOL    HW251581   5.900   0.113   1.592 -0.5166  0.3886  1.2740
16714SOL     OW51582   2.433   1.681   4.805 -0.6011 -0.3258  0.2419
16714SOL    HW151583   2.453   1.695   4.898 -1.7181  1.4748  0.2540
16714SOL    HW251584   2.338   1.670   4.802 -0.9778  2.3947 -0.8998
16715SOL     OW51585   6.451   6.782   4.366  0.5397 -0.1477 -0.4532
16715SOL    HW151586   6.504   6.808   4.291 -0.9646  1.2650 -1.1050
16715SOL    HW251587   6.366   6.758   4.327 -0.1342  0.2092  0.7665
16716SOL     OW51588   5.365   4.743  10.944  0.6662 -0.1018 -0.1901
16716SOL    HW151589   5.345   4.740  11.037  0.3075  0.6818 -0.2352
16716SOL    HW251590   5.306   4.678  10.905  0.8438 -0.4556  0.1355
16717SOL     OW51591   2.339   4.366   3.610  0.5135 -0.4608  0.1923
16717SOL    HW151592   2.356   4.433   3.677 -0.6701 -0.0575  0.1169
16717SOL    HW251593   2.264   4.400   3.561  1.2684 -0.8116 -1.2634
16718SOL     OW51594   5.670   1.427   1.568  0.3164  0.7006 -0.1160
16718SOL    HW151595   5.629   1.345   1.596 -0.3126  1.1101  0.1886
16718SOL    HW251596   5.601   1.473   1.520  1.8765 -0.8874 -4.3912
16719SOL     OW51597   6.230   4.349   1.659  0.2964  0.3372  0.2314
16719SOL    HW151598   6.141   4.358   1.691  0.4494 -0.2475  0.8238
16719SOL    HW251599   6.278   4.305   1.730  0.7994 -0.3354 -0.5038
16720SOL     OW51600   3.008   4.276   3.498  0.2329  0.1081 -0.1242
16720SOL    HW151601   3.004   4.187   3.531  0.9201  0.0233 -0.2543
16720SOL    HW251602   3.055   4.325   3.565  0.0369  0.3298 -0.1460
16721SOL     OW51603   0.478   0.361   8.166 -0.5524 -0.2978 -0.5703
16721SOL    HW151604   0.394   0.356   8.213  0.1875  0.5261  0.8890
16721SOL    HW251605   0.492   0.454   8.153  0.5991 -0.3682  0.0728
16722SOL     OW51606   5.389   0.044   1.184 -0.2647  0.2054 -0.3172
16722SOL    HW151607   5.342   0.059   1.101 -0.4430  0.1752 -0.2217
16722SOL    HW251608   5.481   0.057   1.162 -0.2358 -0.6011 -0.7048
16723SOL     OW51609   3.371   0.632  11.964  0.1545  0.1679  0.0829
16723SOL    HW151610   3.384   0.549  12.009 -0.1595  0.4112  0.6325
16723SOL    HW251611   3.283   0.625  11.926  0.5872 -0.2061 -0.8668
16724SOL     OW51612   5.126   4.777  11.996  0.1195  0.2524  0.3691
16724SOL    HW151613   5.075   4.749  11.920 -1.3121  1.1418  0.9570
16724SOL    HW251614   5.215   4.747  11.978 -0.2842  0.0191 -1.4212
16725SOL     OW51615   4.170   4.652  10.804 -0.0485  0.0896 -0.0007
16725SOL    HW151616   4.085   4.679  10.771 -0.0808 -0.9424 -0.7976
16725SOL    HW251617   4.200   4.727  10.856 -0.4968  1.3374 -1.4511
16726SOL     OW51618   5.607   5.945  12.253 -0.2792 -0.5353 -0.3047
16726SOL    HW151619   5.550   5.958  12.329  0.6010 -1.8669  0.6230
16726SOL    HW251620   5.680   5.894  12.287  1.0803  0.4469 -1.6402
16727SOL     OW51621   7.782   4.244  10.601  0.3397 -0.2726 -0.2316
16727SOL    HW151622   7.786   4.252  10.506 -3.9242  2.4936 -0.4731
16727SOL    HW251623   7.838   4.315  10.634  2.4186 -1.6931 -0.5120
16728SOL     OW51624   3.994   0.781   0.592  0.1872  0.5999  0.1987
16728SOL    HW151625   3.998   0.690   0.562 -0.4749 -0.4345  2.9488
16728SOL    HW251626   3.987   0.833   0.512  1.1932 -1.7131 -1.4807
16729SOL     OW51627   3.673   6.997   0.758  0.2498 -0.6471  0.0644
16729SOL    HW151628   3.702   7.088   0.744 -0.5081 -0.5048 -0.6528
16729SOL    HW251629   3.603   6.985   0.695  0.1467 -1.6505  0.3647
16730SOL     OW51630   3.408   2.651   6.063 -0.3959 -0.2429 -0.1143
16730SOL    HW151631   3.400   2.734   6.109 -1.9663  0.5501 -1.7025
16730SOL    HW251632   3.395   2.585   6.131  0.4942  0.7906  1.1016
16731SOL     OW51633   5.305   5.581   1.287 -0.0155 -0.2113 -0.1109
16731SOL    HW151634   5.394   5.562   1.318 -0.0985 -1.7127 -0.7028
16731SOL    HW251635   5.249   5.524   1.340 -0.5244  0.0348 -0.3848
16732SOL     OW51636   0.886   5.123  11.063 -0.3545 -0.2974  0.3226
16732SOL    HW151637   0.956   5.072  11.022 -0.9868 -1.2703  0.4121
16732SOL    HW251638   0.896   5.105  11.157  1.1250  1.9645  0.6756
16733SOL     OW51639   4.896   3.500   6.634 -0.0404  0.2855  0.1276
16733SOL    HW151640   4.890   3.440   6.709 -2.3761  0.8481  0.4762
16733SOL    HW251641   4.884   3.587   6.672 -2.3521  0.5207 -0.9099
16734SOL     OW51642   4.878   5.341   7.351  0.0096 -0.8321 -0.1216
16734SOL    HW151643   4.896   5.374   7.439 -0.3029 -1.1861  0.0778
16734SOL    HW251644   4.949   5.279   7.334 -0.4085 -1.4251  0.2381
16735SOL     OW51645   7.138   4.325  12.004 -0.2262  0.0170 -0.0069
16735SOL    HW151646   7.200   4.391  11.972  1.1601 -1.4028 -0.3876
16735SOL    HW251647   7.093   4.294  11.925  0.1094 -0.4419 -0.0238
16736SOL     OW51648   1.380   7.067   0.377  0.4599 -0.5122 -0.2553
16736SOL    HW151649   1.413   7.035   0.461 -0.5406 -0.0755  0.3210
16736SOL    HW251650   1.374   6.989   0.322 -1.0292 -1.2162  0.8211
16737SOL     OW51651   1.150   5.403  11.432  0.1918  0.3864 -0.1649
16737SOL    HW151652   1.169   5.403  11.338  0.2833  2.3960 -0.1832
16737SOL    HW251653   1.230   5.437  11.473 -0.5242  1.3707  0.4510
16738SOL     OW51654   7.291   4.094   6.071  0.1051 -0.4922 -0.1512
16738SOL    HW151655   7.291   4.109   5.977  0.3036 -0.5440 -0.1584
16738SOL    HW251656   7.330   4.008   6.082  4.3389  1.2677  0.2783
16739SOL     OW51657   0.532   3.832   3.467  0.1952  0.3482  0.2801
16739SOL    HW151658   0.518   3.749   3.423  1.8051 -0.4181  1.1409
16739SOL    HW251659   0.458   3.840   3.528 -1.1614  0.6458 -1.3453
16740SOL     OW51660   4.968   5.006   5.361  0.8832  0.6008 -0.0758
16740SOL    HW151661   5.031   5.028   5.429  0.1217  0.8282  0.5699
16740SOL    HW251662   4.888   5.053   5.385  0.3095 -0.0698 -0.6058
16741SOL     OW51663   0.171   4.130  10.772  0.3811  0.0908 -0.0181
16741SOL    HW151664   0.109   4.203  10.765  0.1856  0.2003  2.1998
16741SOL    HW251665   0.145   4.070  10.702 -0.9244  1.0692 -0.4209
16742SOL     OW51666   0.919   4.842  11.708  0.7139  0.4281 -0.2327
16742SOL    HW151667   0.966   4.925  11.714  0.5376  0.4739  0.6780
16742SOL    HW251668   0.898   4.820  11.799 -1.9500  0.9323 -0.6488
16743SOL     OW51669   7.062   3.232   3.135  0.0227  0.1605 -0.3980
16743SOL    HW151670   7.077   3.261   3.225  3.2220 -0.0629 -0.7584
16743SOL    HW251671   7.147   3.198   3.106 -1.0604 -0.3247 -3.3115
16744SOL     OW51672   2.173   0.705   0.066  0.3568 -0.2144  0.3998
16744SOL    HW151673   2.089   0.660   0.064  0.7940 -1.0350 -0.1729
16744SOL    HW251674   2.207   0.697  -0.024  0.0559  2.0378  0.0259
16745SOL     OW51675   1.398   3.162   1.621  0.2836  0.0115  0.2346
16745SOL    HW151676   1.332   3.138   1.557  1.5830 -1.3213 -0.6862
16745SOL    HW251677   1.398   3.257   1.621  0.2705  0.0621 -1.8070
16746SOL     OW51678   0.447   4.172   8.658  0.0783 -0.7438 -0.3890
16746SOL    HW151679   0.378   4.191   8.595  0.8174 -0.7048 -1.2107
16746SOL    HW251680   0.403   4.124   8.729 -0.7054 -1.1062 -1.1093
16747SOL     OW51681   7.863   2.553  11.019  0.4640  0.5805 -0.5814
16747SOL    HW151682   7.875   2.630  11.075 -2.9525  0.8476 -0.0095
16747SOL    HW251683   7.841   2.482  11.079 -2.8918  0.7900 -1.3422
16748SOL     OW51684   5.126   7.808   7.656 -0.3202  0.0038  0.0285
16748SOL    HW151685   5.153   7.750   7.585 -1.5371 -0.6198  0.0535
16748SOL    HW251686   5.193   7.796   7.724  0.6659  0.3496 -0.8507
16749SOL     OW51687   6.429   6.642   4.921 -0.3028 -0.1345  0.6872
16749SOL    HW151688   6.351   6.681   4.882  0.9860  1.8755 -0.0572
16749SOL    HW251689   6.482   6.615   4.845 -0.1188 -1.1837  1.1742
16750SOL     OW51690   7.509   5.514   6.765 -0.8386  0.1739 -0.0831
16750SOL    HW151691   7.477   5.482   6.849  1.4051 -0.6977  0.5237
16750SOL    HW251692   7.512   5.435   6.709  0.3301  0.1732 -0.0537
16751SOL     OW51693   4.303   3.069   6.431  0.4154  0.1404 -0.0635
16751SOL    HW151694   4.249   2.993   6.451  0.4855  0.0799 -0.1053
16751SOL    HW251695   4.321   3.062   6.337 -2.2939  1.9204 -0.8441
16752SOL     OW51696   2.725   7.551  10.836  0.6085  0.0311 -0.2158
16752SOL    HW151697   2.704   7.472  10.886 -0.2056 -0.4647 -1.2921
16752SOL    HW251698   2.706   7.623  10.895  0.6664 -0.5649  0.5394
16753SOL     OW51699   2.397   1.991   5.798  0.3915 -0.0739 -0.0028
16753SOL    HW151700   2.439   2.059   5.851  1.8677 -2.1872  1.7395
16753SOL    HW251701   2.383   1.918   5.859 -1.6807 -1.1487 -1.6299
16754SOL     OW51702   7.300   3.096   5.654 -0.3157 -0.0721  0.5120
16754SOL    HW151703   7.251   3.082   5.735  0.6152 -0.8803  0.9588
16754SOL    HW251704   7.358   3.170   5.673 -2.5626  2.1291 -0.6132
16755SOL     OW51705   5.055   5.332   3.955 -0.3062  0.0241  0.2530
16755SOL    HW151706   4.981   5.319   3.896 -1.4225  1.5315  1.2350
16755SOL    HW251707   5.075   5.245   3.988 -1.5875 -0.4426 -0.1357
16756SOL     OW51708   5.989   5.917   4.638 -0.3630 -0.1052 -0.5663
16756SOL    HW151709   5.914   5.972   4.659  0.2624  0.8453 -0.7240
16756SOL    HW251710   6.053   5.935   4.707 -0.0903 -0.5290 -0.6996
16757SOL     OW51711   1.317   5.775   2.741 -0.5599  0.6769  0.3066
16757SOL    HW151712   1.369   5.726   2.678 -2.1476  0.0886 -0.6168
16757SOL    HW251713   1.353   5.863   2.740  1.5738 -0.1318  1.0960
16758SOL     OW51714   1.080   1.857   4.160 -0.3960  0.1927 -0.1030
16758SOL    HW151715   1.012   1.812   4.210 -1.5021  0.9433 -0.8765
16758SOL    HW251716   1.161   1.811   4.183 -1.0229 -0.1987  1.4819
16759SOL     OW51717   6.643   6.133   3.805 -0.1194  0.1151 -0.4066
16759SOL    HW151718   6.584   6.098   3.873  1.6274 -0.3224  0.9806
16759SOL    HW251719   6.643   6.228   3.820  0.6095 -0.0142  0.5782
16760SOL     OW51720   1.092   7.532   8.766  0.0058  0.2698 -0.2754
16760SOL    HW151721   1.156   7.494   8.706 -0.4757 -0.1527 -0.5284
16760SOL    HW251722   1.130   7.520   8.853 -0.1413 -0.7976 -0.3555
16761SOL     OW51723   5.973   4.994   7.986 -0.2570 -0.3830 -0.1978
16761SOL    HW151724   5.883   4.976   7.957 -0.6804  0.2013  0.7088
16761SOL    HW251725   5.964   5.067   8.047  0.6270 -1.3716  1.1693
16762SOL     OW51726   5.764   4.982   4.337 -0.4085 -0.3534 -0.2853
16762SOL    HW151727   5.825   4.954   4.405 -1.0585 -0.1877  0.3801
16762SOL    HW251728   5.810   4.964   4.255  0.8781  0.5119  0.2006
16763SOL     OW51729   5.900   6.014   6.348 -0.1629 -0.0135 -0.3825
16763SOL    HW151730   5.867   6.020   6.258  0.9708  0.2266 -0.8109
16763SOL    HW251731   5.968   5.946   6.343 -0.4288 -0.3367  0.4042
16764SOL     OW51732   4.567   5.317   1.441  0.0032  0.4696  0.2949
16764SOL    HW151733   4.638   5.361   1.486  1.1261 -0.1377 -0.8208
16764SOL    HW251734   4.597   5.227   1.429 -0.9229  0.2103 -0.2424
16765SOL     OW51735   2.144   3.066   2.719 -0.0248  0.0193  0.1300
16765SOL    HW151736   2.155   3.156   2.750  1.1553 -0.1478  0.2450
16765SOL    HW251737   2.100   3.021   2.791 -0.0774  0.3698  0.3155
16766SOL     OW51738   5.406   7.672   1.326 -0.0171 -0.2649 -0.4272
16766SOL    HW151739   5.473   7.655   1.260 -1.6886 -0.6200 -2.1194
16766SOL    HW251740   5.354   7.743   1.289 -1.2262 -0.7271  0.3321
16767SOL     OW51741   3.324   0.561   7.007 -0.0664  0.5636 -0.1531
16767SOL    HW151742   3.309   0.597   7.094 -0.9690  0.2755 -0.1763
16767SOL    HW251743   3.412   0.591   6.983 -0.0979  1.2485  0.5516
16768SOL     OW51744   7.576   3.340  11.351  0.0609  0.9121 -0.0949
16768SOL    HW151745   7.565   3.318  11.444  1.0991 -4.1216 -0.8877
16768SOL    HW251746   7.669   3.358  11.342 -0.3210  3.3138 -0.0054
16769SOL     OW51747   6.402   1.414   4.718 -0.3318 -0.5381  0.1869
16769SOL    HW151748   6.322   1.439   4.765  0.0647 -1.0855  1.1961
16769SOL    HW251749   6.398   1.319   4.712  0.1708 -0.5627  0.1309
16770SOL     OW51750   3.442   7.005   4.453 -0.2974 -0.0218 -0.3335
16770SOL    HW151751   3.358   7.050   4.467  0.1834  0.2998  1.8817
16770SOL    HW251752   3.425   6.915   4.480  0.0506  0.0348  0.0812
16771SOL     OW51753   3.229   3.081   0.196 -0.6052  0.0810 -0.0755
16771SOL    HW151754   3.145   3.112   0.162 -0.2033  0.7966 -0.4424
16771SOL    HW251755   3.257   3.151   0.256  0.2459  0.3638 -0.7974
16772SOL     OW51756   1.229   5.077  11.296  0.3291 -0.5219 -0.7748
16772SOL    HW151757   1.317   5.077  11.335 -0.1338 -1.2805  0.3167
16772SOL    HW251758   1.177   5.023  11.355 -1.1382  0.7463 -0.8401
16773SOL     OW51759   7.700   3.163   2.787 -0.4488 -0.6320 -0.4349
16773SOL    HW151760   7.685   3.256   2.768  0.0648 -0.6745 -1.0646
16773SOL    HW251761   7.731   3.163   2.878  1.0653 -0.0222 -0.9174
16774SOL     OW51762   0.248   4.749   1.593  0.4682  0.6988  0.0276
16774SOL    HW151763   0.210   4.663   1.577  0.1615  0.5236  1.5820
16774SOL    HW251764   0.285   4.775   1.508 -0.8585 -0.2449 -0.8750
16775SOL     OW51765   1.861   1.884   9.936 -0.7715  0.5454  1.0849
16775SOL    HW151766   1.817   1.881  10.021 -2.4523  1.3953  0.2855
16775SOL    HW251767   1.797   1.846   9.875  1.8462 -3.9790  0.6777
16776SOL     OW51768   2.595   4.505   4.273  0.0642  0.2344 -0.2537
16776SOL    HW151769   2.562   4.479   4.186  0.1199  0.7713 -0.4419
16776SOL    HW251770   2.517   4.538   4.318  0.6222  3.9003 -1.5790
16777SOL     OW51771   0.274   2.153   3.977 -0.2567  0.0581 -0.3457
16777SOL    HW151772   0.191   2.139   4.023  1.2248  0.4613  2.7112
16777SOL    HW251773   0.320   2.070   3.985  0.3309  0.3704 -0.4487
16778SOL     OW51774   3.526   0.107   5.688  0.1251  0.2164  0.6026
16778SOL    HW151775   3.529   0.079   5.597  3.4729  0.6125  0.4951
16778SOL    HW251776   3.523   0.203   5.684 -0.3522  0.2202  0.9264
16779SOL     OW51777   4.808   5.002   5.135 -0.0954  0.2633  0.2561
16779SOL    HW151778   4.731   4.966   5.179  0.1071 -1.9770 -1.0568
16779SOL    HW251779   4.880   4.986   5.197  0.1040 -2.3930 -0.5233
16780SOL     OW51780   6.507   2.687   9.214 -0.1123  0.0393 -0.1555
16780SOL    HW151781   6.493   2.597   9.243 -0.2202  0.1115  0.0172
16780SOL    HW251782   6.431   2.735   9.246 -0.0077  0.2112 -0.1616
16781SOL     OW51783   5.326   4.917   1.539 -0.3039  0.4983 -0.0147
16781SOL    HW151784   5.246   4.865   1.542  0.8002 -1.5137  5.0718
16781SOL    HW251785   5.304   4.997   1.588 -0.1714  1.9510 -2.1688
16782SOL     OW51786   6.721   0.447  10.440  0.0341 -0.0389 -0.2886
16782SOL    HW151787   6.691   0.537  10.431 -0.6083 -0.2346 -0.1190
16782SOL    HW251788   6.787   0.437  10.371  0.3537  0.6541 -0.0969
16783SOL     OW51789   7.373   5.310   8.574 -0.0564  0.2464  0.1736
16783SOL    HW151790   7.284   5.278   8.559 -0.1251 -0.3985  1.7723
16783SOL    HW251791   7.371   5.346   8.663  0.9579  1.4300 -0.2453
16784SOL     OW51792   4.123   1.178   5.040  0.2100 -0.0522 -0.3561
16784SOL    HW151793   4.129   1.190   4.945  0.2637  0.0575 -0.3393
16784SOL    HW251794   4.032   1.200   5.061  0.4119  0.7478 -0.2711
16785SOL     OW51795   4.147   0.424   6.119  0.3795 -0.2712 -0.1938
16785SOL    HW151796   4.109   0.495   6.068  1.3256  0.0975 -0.4038
16785SOL    HW251797   4.077   0.359   6.127 -0.3980  0.5573 -0.2405
16786SOL     OW51798   5.214   4.890   4.505  0.2313 -0.0216  0.7138
16786SOL    HW151799   5.284   4.955   4.492 -0.2216  0.3905  0.3209
16786SOL    HW251800   5.135   4.942   4.516  0.2632 -0.3828  3.2969
16787SOL     OW51801   5.751   1.781   6.074  0.3528 -0.2477 -0.1306
16787SOL    HW151802   5.825   1.723   6.091  0.1068 -0.0250  1.9190
16787SOL    HW251803   5.755   1.846   6.143 -0.6789  0.8944 -1.1034
16788SOL     OW51804   5.298   5.873   7.745 -0.4420 -0.4784 -0.4345
16788SOL    HW151805   5.217   5.875   7.796  0.4494  1.5697  1.0620
16788SOL    HW251806   5.285   5.941   7.678 -0.0222 -0.2569 -0.2907
16789SOL     OW51807   2.277   5.656   4.203  0.2772  0.4466  1.0482
16789SOL    HW151808   2.191   5.627   4.174  0.4658  0.6634  0.2429
16789SOL    HW251809   2.336   5.585   4.176  0.9420  1.9968 -2.0942
16790SOL     OW51810   6.939   6.048   7.261 -0.1833  0.3813 -0.4023
16790SOL    HW151811   6.917   6.116   7.198 -0.6294 -0.4670 -1.1802
16790SOL    HW251812   7.035   6.044   7.260 -0.1331  1.1790 -0.1271
16791SOL     OW51813   3.587   0.136   0.422  0.6724  0.0500 -0.1224
16791SOL    HW151814   3.509   0.167   0.376  0.4704  0.9300  0.7888
16791SOL    HW251815   3.633   0.215   0.449  1.7480 -0.4611 -0.3971
16792SOL     OW51816   0.565   3.187   5.091  0.3528  0.1971  0.6266
16792SOL    HW151817   0.650   3.147   5.071  0.0341  0.0810 -0.5960
16792SOL    HW251818   0.510   3.114   5.118  0.8799  0.3992  2.3624
16793SOL     OW51819   0.208   2.079   6.806  0.2926  0.1384  0.1154
16793SOL    HW151820   0.218   1.989   6.835 -2.5901 -0.2476  0.1952
16793SOL    HW251821   0.297   2.113   6.802  1.4014 -2.4495  0.8447
16794SOL     OW51822   5.605   2.923  10.714 -0.6552  0.0579 -0.5104
16794SOL    HW151823   5.593   2.830  10.734  0.4107 -0.1070 -0.5887
16794SOL    HW251824   5.649   2.924  10.629 -0.8542  0.6349 -0.6077
16795SOL     OW51825   5.318   7.336   8.935  0.4200 -0.0846 -0.6994
16795SOL    HW151826   5.334   7.407   8.998  0.0164 -0.5854 -0.0309
16795SOL    HW251827   5.286   7.263   8.987  3.4687 -1.7727 -0.9402
16796SOL     OW51828   5.982   1.324   2.087 -0.1002  0.2525  0.3095
16796SOL    HW151829   5.944   1.315   2.000  2.6078 -0.9534 -0.8631
16796SOL    HW251830   6.054   1.261   2.088  0.1424  0.4424  3.3483
16797SOL     OW51831   5.317   4.426   0.630 -0.0955  0.2262  0.4988
16797SOL    HW151832   5.292   4.337   0.607  0.1258  0.5128 -0.9397
16797SOL    HW251833   5.380   4.452   0.563  0.7567  1.0520  1.5874
16798SOL     OW51834   4.579   3.471  11.713 -0.3090 -0.3413 -0.5611
16798SOL    HW151835   4.551   3.387  11.676 -1.6158  0.0791 -0.5785
16798SOL    HW251836   4.563   3.534  11.644 -1.4225  0.2382  0.1957
16799SOL     OW51837   1.079   6.987  10.452 -0.4384 -0.7025  0.0956
16799SOL    HW151838   1.168   7.001  10.484 -0.4709  1.6252 -0.6107
16799SOL    HW251839   1.028   7.058  10.490 -1.0201  0.6184 -2.8220
16800SOL     OW51840   1.215   5.164   4.110 -0.3716 -0.1882  0.2628
16800SOL    HW151841   1.186   5.146   4.021  0.8719 -1.9566  0.1439
16800SOL    HW251842   1.280   5.233   4.101 -1.9052  1.2771  0.1135
16801SOL     OW51843   3.960   1.447   4.339  0.1232 -0.2453  0.1738
16801SOL    HW151844   3.920   1.517   4.391 -2.2715 -2.4429  1.4812
16801SOL    HW251845   3.945   1.473   4.248 -0.3859  1.0871  0.6200
16802SOL     OW51846   3.956   1.195   4.432  0.0504 -0.3657 -0.1221
16802SOL    HW151847   4.028   1.203   4.494 -0.6583  0.5863  0.6297
16802SOL    HW251848   3.923   1.285   4.423 -0.5129 -0.6586 -1.0858
16803SOL     OW51849   0.939   7.665  11.881 -0.6802 -0.0954 -0.0083
16803SOL    HW151850   0.961   7.585  11.834  0.5740  0.0908  0.2279
16803SOL    HW251851   0.913   7.635  11.968 -0.7430 -0.2832 -0.0915
16804SOL     OW51852   0.790   2.500   5.432  0.1438 -0.2459  0.4091
16804SOL    HW151853   0.770   2.450   5.353  0.5111  0.9542 -0.4640
16804SOL    HW251854   0.850   2.444   5.482  0.4179 -0.7445 -0.4643
16805SOL     OW51855   7.728   7.528  11.131 -0.5441  0.1494  0.2204
16805SOL    HW151856   7.803   7.555  11.078  0.2467  0.0368  1.2448
16805SOL    HW251857   7.689   7.456  11.083  0.1151  0.0898 -0.2416
16806SOL     OW51858   3.443   1.041  12.182  0.1955  0.1357 -0.4251
16806SOL    HW151859   3.424   1.065  12.091  1.1403 -1.1462 -0.9994
16806SOL    HW251860   3.382   0.970  12.201  0.3303  0.0753 -0.2203
16807SOL     OW51861   7.007   5.376  12.173  0.1160 -0.0916 -0.7704
16807SOL    HW151862   6.971   5.385  12.261  0.2215  0.4964 -0.7813
16807SOL    HW251863   6.931   5.376  12.116  0.1192  2.4183 -0.8996
16808SOL     OW51864   1.190   4.854   1.886 -0.4602  0.4144 -0.2853
16808SOL    HW151865   1.241   4.810   1.817  1.4106  0.5050  0.9566
16808SOL    HW251866   1.099   4.834   1.865  0.1503 -1.1305 -1.7193
16809SOL     OW51867   3.470   3.837  10.006  0.3968  0.4491  0.1650
16809SOL    HW151868   3.555   3.833   9.961 -0.2822  1.3083 -1.2552
16809SOL    HW251869   3.429   3.917   9.972 -0.8257  0.2502  1.1188
16810SOL     OW51870   5.281   2.875   7.459 -0.1936 -0.0070 -0.3543
16810SOL    HW151871   5.352   2.930   7.494 -0.3487  0.2122 -0.3799
16810SOL    HW251872   5.201   2.916   7.491 -0.2918 -0.5640  0.1142
16811SOL     OW51873   0.996   3.595   9.761  0.4004  0.2244  0.5566
16811SOL    HW151874   1.091   3.605   9.770  0.3618  0.3992  0.7731
16811SOL    HW251875   0.983   3.573   9.669  0.5381  1.5869  0.1909
16812SOL     OW51876   0.957   7.115   9.257 -0.0866  0.0622 -0.1357
16812SOL    HW151877   0.935   7.096   9.166  0.7677  0.4582 -0.4398
16812SOL    HW251878   0.884   7.081   9.308 -0.2130 -0.8557 -0.9105
16813SOL     OW51879   4.133   1.401   5.799  0.4229  0.0634  0.2823
16813SOL    HW151880   4.135   1.431   5.890 -0.5829  0.4812  0.1826
16813SOL    HW251881   4.040   1.398   5.777  0.6572  2.3878 -1.4863
16814SOL     OW51882   3.417   4.956  10.773 -0.6469 -0.0246  0.0779
16814SOL    HW151883   3.397   4.954  10.867 -0.4087  1.0676  0.1724
16814SOL    HW251884   3.510   4.981  10.769 -0.3883 -1.0377 -0.4295
16815SOL     OW51885   4.997   7.163  11.825 -0.0207  0.2461  0.3680
16815SOL    HW151886   5.037   7.246  11.851 -3.6363  2.2758  0.1018
16815SOL    HW251887   4.975   7.121  11.908 -0.0679  0.5807  0.5291
16816SOL     OW51888   4.239   6.185   5.112  0.3301 -0.7168  0.6776
16816SOL    HW151889   4.184   6.119   5.070 -0.2647  0.6531 -0.8253
16816SOL    HW251890   4.237   6.163   5.205 -0.4263 -2.3693  0.3103
16817SOL     OW51891   4.675   0.922  11.173 -0.0587  0.7761  0.7846
16817SOL    HW151892   4.732   0.845  11.163 -1.1500  0.0350  0.0176
16817SOL    HW251893   4.666   0.932  11.268 -0.1615 -0.2599  0.9027
16818SOL     OW51894   2.147   5.506   8.688  0.6253 -0.1686 -0.8723
16818SOL    HW151895   2.095   5.586   8.677  2.0785  0.9005 -0.3518
16818SOL    HW251896   2.156   5.496   8.782  1.4695 -0.2552 -0.9586
16819SOL     OW51897   2.057   6.751   6.854  0.0128 -0.1451 -0.1404
16819SOL    HW151898   2.003   6.830   6.843 -0.6882 -0.6664 -0.5100
16819SOL    HW251899   2.143   6.776   6.820  0.9103  1.6195  3.0608
16820SOL     OW51900   2.753   1.211   8.694 -0.2656 -0.1466 -0.4305
16820SOL    HW151901   2.783   1.182   8.608 -0.2204 -0.7703 -0.2151
16820SOL    HW251902   2.703   1.291   8.678  1.4031  0.8619 -0.8252
16821SOL     OW51903   4.933   7.709   3.494  0.0122  0.8110 -0.2501
16821SOL    HW151904   4.863   7.646   3.512 -0.5882  0.5739 -3.0947
16821SOL    HW251905   4.908   7.788   3.542 -0.5876 -0.2329  1.2191
16822SOL     OW51906   3.232   0.866  12.115 -0.4579  0.5474  0.0231
16822SOL    HW151907   3.253   0.774  12.132 -0.2069  0.8838  1.7749
16822SOL    HW251908   3.229   0.873  12.020 -0.9116 -1.3625 -0.1445
16823SOL     OW51909   5.063   5.203   2.111 -0.0915  0.5515  0.6549
16823SOL    HW151910   4.986   5.228   2.058 -0.9803 -2.8686  0.1147
16823SOL    HW251911   5.036   5.220   2.201 -1.3198 -0.0868  0.4369
16824SOL     OW51912   5.290   3.568  12.384  0.2808  0.0664  0.0151
16824SOL    HW151913   5.357   3.516  12.429  0.2441  0.7419  0.8679
16824SOL    HW251914   5.246   3.505  12.327 -0.3828 -1.0919  1.7074
16825SOL     OW51915   5.909   2.458   7.540  0.4762 -0.4532 -0.0916
16825SOL    HW151916   5.904   2.545   7.581  1.9878  0.6993 -2.1697
16825SOL    HW251917   5.819   2.439   7.514  0.5499  2.1430 -2.6644
16826SOL     OW51918   3.227   0.976   4.906  0.1419 -0.5113 -0.8013
16826SOL    HW151919   3.136   0.994   4.881  0.0006 -1.1573 -0.7870
16826SOL    HW251920   3.228   0.985   5.001 -0.0828 -1.1853 -0.7253
16827SOL     OW51921   6.465   3.793   3.753 -0.0514  0.2360 -0.5452
16827SOL    HW151922   6.463   3.880   3.793  0.8410  0.3410 -0.7095
16827SOL    HW251923   6.481   3.809   3.660 -1.1660 -0.0566 -0.8033
16828SOL     OW51924   7.651   7.046   6.558 -0.3929 -0.2028 -0.0949
16828SOL    HW151925   7.624   7.137   6.548 -0.3725 -0.3243 -1.4586
16828SOL    HW251926   7.721   7.049   6.623 -1.4293  0.5314  1.0336
16829SOL     OW51927   3.961   5.495   1.643 -0.3742  0.0847  0.1820
16829SOL    HW151928   3.950   5.581   1.602  1.9738  1.0896  1.4407
16829SOL    HW251929   4.017   5.447   1.583 -2.8719 -1.1921 -1.2414
16830SOL     OW51930   0.391   4.353   3.375 -0.4094 -0.3246  0.3681
16830SOL    HW151931   0.437   4.301   3.309 -2.0704 -0.0816 -1.0464
16830SOL    HW251932   0.301   4.321   3.374 -1.2276  1.7901  0.2466
16831SOL     OW51933   2.480   3.905   7.049  0.3509  0.3400  0.1510
16831SOL    HW151934   2.575   3.894   7.039  0.0585 -1.8912 -0.7433
16831SOL    HW251935   2.442   3.849   6.982 -1.6222 -0.4604  1.8258
16832SOL     OW51936   6.256   3.625   6.936 -0.3830  0.2097 -0.5160
16832SOL    HW151937   6.317   3.672   6.880  0.1146 -1.0886 -1.1159
16832SOL    HW251938   6.170   3.656   6.909 -0.0854  0.5491 -1.0961
16833SOL     OW51939   4.763   5.696   4.028  0.0710 -0.4548 -0.3415
16833SOL    HW151940   4.732   5.725   4.113  1.1696 -0.5682  0.1108
16833SOL    HW251941   4.843   5.647   4.047 -0.0704 -1.1120 -1.3686
16834SOL     OW51942   2.673   1.155   2.918  0.8208  0.3491 -0.4411
16834SOL    HW151943   2.655   1.170   2.825 -0.3509 -0.4673 -0.3706
16834SOL    HW251944   2.756   1.108   2.919  1.1630  0.9283 -1.0351
16835SOL     OW51945   5.415   0.680   1.403 -0.3468  0.4132  0.9966
16835SOL    HW151946   5.373   0.740   1.465 -0.8650  1.4779 -0.3344
16835SOL    HW251947   5.343   0.640   1.355  0.0291  2.1858 -1.2539
16836SOL     OW51948   3.551   2.945   1.391 -0.3580 -0.4890  0.2109
16836SOL    HW151949   3.573   3.027   1.436  0.3428 -0.4504 -0.1953
16836SOL    HW251950   3.455   2.941   1.395 -0.7291  2.0287 -2.6676
16837SOL     OW51951   2.223   2.508   2.472 -0.7349  0.0015  0.5524
16837SOL    HW151952   2.309   2.499   2.431 -0.9421  0.7348 -0.0832
16837SOL    HW251953   2.236   2.575   2.540 -1.2705  1.8861 -1.0850
16838SOL     OW51954   4.633   7.540   7.870  0.2470  0.1364 -0.0758
16838SOL    HW151955   4.595   7.624   7.843 -0.3659 -0.6969 -2.0194
16838SOL    HW251956   4.562   7.496   7.917  0.4664  0.5545  0.6665
16839SOL     OW51957   0.440   7.569   2.342 -0.0071  0.2671 -0.7041
16839SOL    HW151958   0.482   7.501   2.289 -2.2511 -0.3532 -1.8194
16839SOL    HW251959   0.362   7.594   2.292 -0.9438  1.4128  1.1878
16840SOL     OW51960   2.504   4.608   5.940 -0.4357  0.6113  0.1121
16840SOL    HW151961   2.477   4.697   5.959  0.5451  0.7173  1.0773
16840SOL    HW251962   2.590   4.617   5.898 -0.2142  0.1141  0.4458
16841SOL     OW51963   4.413   7.272   3.321 -0.3737 -0.2409  0.2150
16841SOL    HW151964   4.394   7.185   3.287  1.0309 -0.3311 -0.3794
16841SOL    HW251965   4.385   7.269   3.413 -0.6772 -1.1815  0.0951
16842SOL     OW51966   3.511   5.507   7.309 -0.4191 -0.2868 -0.0669
16842SOL    HW151967   3.544   5.591   7.340  0.7630 -0.9793  0.6758
16842SOL    HW251968   3.457   5.474   7.380 -0.3521 -0.4331 -0.0817
16843SOL     OW51969   4.056   3.618  12.059 -0.2363  0.0796 -0.3168
16843SOL    HW151970   3.979   3.643  12.008  0.2115  2.7610  0.1742
16843SOL    HW251971   4.130   3.636  12.001  0.1145 -1.4890 -0.4080
16844SOL     OW51972   4.584   7.896   3.296 -0.5445  0.5302 -0.3966
16844SOL    HW151973   4.674   7.921   3.315 -0.6833  1.1134 -0.4793
16844SOL    HW251974   4.535   7.922   3.374 -0.9728  2.1362 -1.1409
16845SOL     OW51975   1.374   1.375   9.990  0.5734 -0.1480 -0.4416
16845SOL    HW151976   1.309   1.425   9.942  0.1431  0.1544  0.4283
16845SOL    HW251977   1.437   1.347   9.924  0.0207  0.2812 -1.1624
16846SOL     OW51978   6.539   6.217   6.085 -0.1115 -0.2274 -0.4162
16846SOL    HW151979   6.598   6.176   6.149  0.3956  0.4789 -0.4151
16846SOL    HW251980   6.471   6.258   6.138 -0.8027 -1.3104 -0.4303
16847SOL     OW51981   6.309   0.036   1.274  0.1696 -0.0359 -0.2502
16847SOL    HW151982   6.394  -0.007   1.279 -0.6901 -1.7546  0.5059
16847SOL    HW251983   6.246  -0.034   1.293 -1.3371  1.4714  0.5473
16848SOL     OW51984   3.574   2.404   0.553  0.4829 -0.3996  0.0681
16848SOL    HW151985   3.523   2.485   0.546  1.7505  0.3532 -1.2731
16848SOL    HW251986   3.664   2.432   0.536  0.8661 -2.2004 -1.2196
16849SOL     OW51987   6.601   1.295   4.442 -0.0618 -0.0348 -0.1155
16849SOL    HW151988   6.560   1.338   4.367 -0.2148  1.4811  0.7964
16849SOL    HW251989   6.528   1.267   4.497  0.0159 -1.9184 -0.8838
16850SOL     OW51990   6.510   4.264   8.949 -0.0128  0.6312 -0.0551
16850SOL    HW151991   6.482   4.306   8.868 -0.3465 -0.9060 -0.7635
16850SOL    HW251992   6.545   4.179   8.922  0.6219  0.4216  1.3343
16851SOL     OW51993   4.423   5.564  11.294  0.0707  0.3725  0.2517
16851SOL    HW151994   4.397   5.598  11.380 -0.3091  0.1005  0.2467
16851SOL    HW251995   4.343   5.524  11.259  0.6207 -0.9499  0.4556
16852SOL     OW51996   0.596   7.529   0.948 -0.3767  0.1466 -0.0185
16852SOL    HW151997   0.653   7.606   0.951  0.2244 -0.3125  0.8904
16852SOL    HW251998   0.535   7.541   1.021 -0.8346  0.1626 -0.3954
16853SOL     OW51999   6.518   1.673   9.311  0.0042  0.1627 -0.6213
16853SOL    HW152000   6.462   1.680   9.389 -0.6535  0.8133 -1.1284
16853SOL    HW252001   6.605   1.656   9.346 -0.3419  0.0542  0.2404
16854SOL     OW52002   4.077   7.636   8.702  0.2921 -0.0056 -0.1502
16854SOL    HW152003   4.077   7.701   8.771 -2.0588  1.0966 -1.0927
16854SOL    HW252004   4.000   7.582   8.718  0.5329 -0.6710 -1.0779
16855SOL     OW52005   7.561   2.741  11.770 -0.3859  0.3839 -0.1099
16855SOL    HW152006   7.527   2.696  11.693  0.6488 -0.4523 -0.1118
16855SOL    HW252007   7.656   2.740  11.758 -0.2136  0.4039  1.0833
16856SOL     OW52008   3.976   7.197  11.918  0.4071 -0.2919  0.0043
16856SOL    HW152009   3.972   7.113  11.873  1.3709 -0.0292 -0.5843
16856SOL    HW252010   4.036   7.250  11.867 -0.6760  1.0001 -0.0025
16857SOL     OW52011   6.130   7.375   4.271  0.1523 -0.0372  0.1557
16857SOL    HW152012   6.095   7.329   4.347  0.1421 -1.5795 -0.7199
16857SOL    HW252013   6.216   7.407   4.299 -0.3945  0.5570  1.1935
16858SOL     OW52014   3.659   3.104   9.270  0.3853  0.5282 -0.0681
16858SOL    HW152015   3.689   3.195   9.274  1.0745  0.4565 -2.4130
16858SOL    HW252016   3.738   3.053   9.251 -0.1952 -0.4220 -0.0091
16859SOL     OW52017   2.219   4.880  11.458  0.7027  0.2327 -0.1187
16859SOL    HW152018   2.312   4.894  11.476  0.5756  0.3781  0.4670
16859SOL    HW252019   2.187   4.834  11.536  0.3953 -0.2871 -0.5427
16860SOL     OW52020   5.580   4.223  10.233 -0.1616  0.3339  0.0409
16860SOL    HW152021   5.549   4.220  10.323 -0.5739 -1.0255 -0.1174
16860SOL    HW252022   5.562   4.136  10.199  1.3329  0.3639 -0.9232
16861SOL     OW52023   3.145   5.589   7.427  0.6372 -0.4450 -0.2140
16861SOL    HW152024   3.093   5.524   7.475  2.0016 -0.4057  1.4190
16861SOL    HW252025   3.236   5.561   7.440  1.2613  1.7048  0.4378
16862SOL     OW52026   0.438   0.194  12.120 -0.2548  0.0115  0.6912
16862SOL    HW152027   0.505   0.131  12.095 -0.0081 -0.2385  1.9012
16862SOL    HW252028   0.402   0.225  12.037 -0.4845 -1.8112  0.0515
16863SOL     OW52029   0.154   7.375   9.231 -0.0804  0.3161 -0.4851
16863SOL    HW152030   0.067   7.412   9.216 -0.3881  0.8017  2.1401
16863SOL    HW252031   0.142   7.280   9.225 -0.5858  0.4056 -0.9768
16864SOL     OW52032   5.884   4.728   5.345  0.2119 -0.1932 -0.5716
16864SOL    HW152033   5.972   4.762   5.330  0.5197 -0.6563  0.1283
16864SOL    HW252034   5.883   4.704   5.438 -0.0203 -1.9708 -1.0025
16865SOL     OW52035   4.819   1.406   3.430  0.5806  0.1278  0.2867
16865SOL    HW152036   4.839   1.394   3.523  0.4786  1.1575  0.4572
16865SOL    HW252037   4.895   1.371   3.384  0.6893 -0.2661  0.7684
16866SOL     OW52038   2.520   2.124   8.131  0.5731  0.3511 -0.5887
16866SOL    HW152039   2.474   2.069   8.195 -1.7636  1.5533 -1.1018
16866SOL    HW252040   2.541   2.065   8.059 -2.6319  0.1066 -1.5117
16867SOL     OW52041   5.449   5.834   2.765 -0.7450 -0.5536  0.3223
16867SOL    HW152042   5.394   5.766   2.805 -1.5975 -0.1961 -0.2050
16867SOL    HW252043   5.459   5.804   2.674  0.8347 -1.1549  0.6655
16868SOL     OW52044   3.362   2.943   4.952 -0.0303  0.3832 -0.2693
16868SOL    HW152045   3.346   2.922   4.860 -0.2577 -0.4630 -0.0441
16868SOL    HW252046   3.346   3.037   4.959  0.4623  0.5400 -1.1915
16869SOL     OW52047   2.957   4.187  10.988  0.1413 -0.5001  0.0863
16869SOL    HW152048   3.021   4.233  11.042  0.7978  0.4646 -1.4710
16869SOL    HW252049   3.010   4.137  10.925 -0.6181 -0.3747 -0.6663
16870SOL     OW52050   1.519   7.373   9.776  0.9684 -0.3885  0.1069
16870SOL    HW152051   1.514   7.468   9.787  2.0632 -0.0831 -1.6509
16870SOL    HW252052   1.611   7.351   9.793  0.6969 -1.1636  0.6470
16871SOL     OW52053   3.037   1.721   3.943  0.4677  0.1732 -0.4823
16871SOL    HW152054   3.070   1.633   3.926  0.1059 -0.2852  1.0468
16871SOL    HW252055   2.945   1.709   3.966  1.0501  0.6006  2.3879
16872SOL     OW52056   2.079   3.004   0.152 -0.2205 -0.4067 -1.2245
16872SOL    HW152057   2.116   2.942   0.090 -1.0828 -0.0927 -2.0729
16872SOL    HW252058   2.004   2.958   0.190 -0.2665 -0.2478 -1.1217
16873SOL     OW52059   2.016   1.219   6.338  0.7730 -0.5003  0.0482
16873SOL    HW152060   2.105   1.227   6.371  0.8108 -0.4443 -0.0695
16873SOL    HW252061   1.961   1.221   6.417  0.7727  0.8835  0.0411
16874SOL     OW52062   1.693   0.240   3.106 -0.1146  0.3061 -0.7191
16874SOL    HW152063   1.784   0.239   3.078  0.1203 -2.8289 -0.2188
16874SOL    HW252064   1.696   0.238   3.201 -0.7618  1.2918 -0.6603
16875SOL     OW52065   5.928   2.247   4.882 -0.4066 -0.4810  0.0323
16875SOL    HW152066   5.947   2.156   4.904  1.2640 -0.1544  0.0064
16875SOL    HW252067   5.988   2.298   4.935  0.4717  0.5062 -1.8107
16876SOL     OW52068   5.844   3.640   4.307 -0.6356 -0.2535 -0.1265
16876SOL    HW152069   5.921   3.693   4.285 -0.7871 -0.6490 -1.7120
16876SOL    HW252070   5.798   3.691   4.374  0.8420  0.1244  0.6408
16877SOL     OW52071   0.944   5.801   1.488 -0.2621  0.9201 -1.0497
16877SOL    HW152072   0.884   5.748   1.435 -1.8739  1.8542 -0.2348
16877SOL    HW252073   0.923   5.891   1.464  0.0915  1.2947  0.0057
16878SOL     OW52074   4.946   5.055   0.172 -0.0197  0.1310  0.7636
16878SOL    HW152075   4.855   5.081   0.186 -0.9537 -0.6863 -2.7817
16878SOL    HW252076   4.997   5.130   0.202 -2.0551  1.9106  0.0830
16879SOL     OW52077   2.486   3.639  10.172 -0.3821  0.1533 -0.2489
16879SOL    HW152078   2.510   3.724  10.136 -0.4024 -0.0479 -0.7364
16879SOL    HW252079   2.538   3.632  10.252  1.0673 -0.1865 -1.1831
16880SOL     OW52080   4.630   1.323   1.439  0.2304 -0.5120 -0.0486
16880SOL    HW152081   4.684   1.329   1.360  0.0173  1.7366 -0.0871
16880SOL    HW252082   4.545   1.356   1.412  0.4612  1.3741  1.3378
16881SOL     OW52083   2.089   0.215   0.403  0.4934  0.8094 -0.6805
16881SOL    HW152084   2.084   0.218   0.307  1.9482 -2.0559 -0.9613
16881SOL    HW252085   1.999   0.201   0.431  0.2390  0.0927 -1.7756
16882SOL     OW52086   3.388   3.616  11.529  0.2921  0.4041  0.3875
16882SOL    HW152087   3.436   3.695  11.507  1.0623 -0.3472 -0.7147
16882SOL    HW252088   3.341   3.593  11.449 -0.4435  0.0999  0.8926
16883SOL     OW52089   2.740   3.844   7.481 -0.7859  0.1507  0.6212
16883SOL    HW152090   2.815   3.785   7.484 -0.7415  0.1980  0.4571
16883SOL    HW252091   2.778   3.930   7.465 -0.9906 -0.0701 -1.2001
16884SOL     OW52092   7.698   4.033   4.683 -0.0138 -0.3118  0.5248
16884SOL    HW152093   7.655   4.011   4.601 -0.7563  0.3311  0.7260
16884SOL    HW252094   7.735   3.950   4.714  1.2742 -0.3383 -1.0066
16885SOL     OW52095   4.977   4.342   0.615  0.3652 -0.0414 -0.5590
16885SOL    HW152096   5.021   4.280   0.558  0.1579 -2.5402  1.7977
16885SOL    HW252097   4.884   4.322   0.604  0.3721 -1.5227  1.5291
16886SOL     OW52098   2.821   1.723   6.864  0.2475  0.5340 -0.5321
16886SOL    HW152099   2.845   1.643   6.912 -0.1753  0.0534 -1.1045
16886SOL    HW252100   2.857   1.794   6.916 -2.0241  0.2005  1.6975
16887SOL     OW52101   4.232   0.413   7.035 -0.0960 -0.2279  0.4387
16887SOL    HW152102   4.146   0.380   7.058  0.3775 -1.6395  0.2876
16887SOL    HW252103   4.228   0.507   7.054 -0.9992 -0.6216  2.4379
16888SOL     OW52104   3.714   0.940  10.075 -0.5005  0.1011  0.4383
16888SOL    HW152105   3.630   0.986  10.083 -0.6188 -0.2568  1.4132
16888SOL    HW252106   3.774   0.991  10.129 -0.0193  0.4764 -0.4237
16889SOL     OW52107   2.133   3.456   6.873  0.0588 -0.1323  0.4185
16889SOL    HW152108   2.038   3.457   6.883 -0.1798 -2.1989 -0.8370
16889SOL    HW252109   2.157   3.364   6.888  1.4924 -0.1757 -1.6578
16890SOL     OW52110   0.121   1.536   9.840  0.4120  0.2314 -0.2218
16890SOL    HW152111   0.134   1.627   9.864 -1.2564  0.7189 -0.9820
16890SOL    HW252112   0.191   1.488   9.885  1.7543  1.9476 -0.3894
16891SOL     OW52113   3.461   7.272   0.630  0.4791  0.0190  0.0106
16891SOL    HW152114   3.533   7.294   0.570  2.0318  0.4660  1.9360
16891SOL    HW252115   3.446   7.179   0.615  0.7417  0.1383 -1.1320
16892SOL     OW52116   6.465   0.546   5.044 -0.0555 -0.2628 -0.3735
16892SOL    HW152117   6.421   0.626   5.072 -1.1331 -0.8678 -0.2926
16892SOL    HW252118   6.402   0.503   4.986  0.7841 -0.7190 -0.9663
16893SOL     OW52119   3.652   0.154   1.727  0.1816  0.0718  0.8869
16893SOL    HW152120   3.732   0.103   1.741  0.2939 -0.4846 -1.3715
16893SOL    HW252121   3.626   0.182   1.814  2.1521 -0.7815  1.8122
16894SOL     OW52122   1.567   1.174   4.101 -0.7707  0.0831  0.6228
16894SOL    HW152123   1.593   1.247   4.158 -0.9999  0.4732  0.2343
16894SOL    HW252124   1.485   1.142   4.138 -1.1025  0.5644  0.3108
16895SOL     OW52125   0.156   2.090  11.534 -0.1620 -0.2669  0.0528
16895SOL    HW152126   0.068   2.055  11.529 -1.1815  2.1787 -0.6096
16895SOL    HW252127   0.199   2.059  11.455 -1.0538  0.0202 -0.5592
16896SOL     OW52128   0.454   0.805   2.749 -0.3466 -0.4576 -0.4820
16896SOL    HW152129   0.446   0.726   2.696 -0.7233 -0.8738  0.1749
16896SOL    HW252130   0.548   0.816   2.763 -0.3273 -1.2396  0.0755
16897SOL     OW52131   5.884   2.255   2.853  0.0143  0.2622  0.0250
16897SOL    HW152132   5.912   2.193   2.787 -0.6918 -0.6363  0.5447
16897SOL    HW252133   5.930   2.227   2.933  0.6800  1.1902 -0.0171
16898SOL     OW52134   1.895   1.929   2.171 -0.3245 -0.4362  0.1133
16898SOL    HW152135   1.911   1.882   2.253  0.3483 -0.6648 -0.1423
16898SOL    HW252136   1.815   1.980   2.188 -0.5138 -0.9167  0.7182
16899SOL     OW52137   0.361   1.280   6.132 -0.1166  0.4715  0.0254
16899SOL    HW152138   0.387   1.260   6.222 -0.3902  1.0436  0.2404
16899SOL    HW252139   0.302   1.209   6.107  0.4473 -0.0184  0.0758
16900SOL     OW52140   0.839   3.901   6.236  0.1509 -0.2683 -0.6506
16900SOL    HW152141   0.816   3.936   6.150  0.4994 -0.6196 -0.8902
16900SOL    HW252142   0.872   3.813   6.218  0.8613 -0.0983 -0.2300
16901SOL     OW52143   6.334   6.027   8.602 -0.0027  0.1208 -0.4692
16901SOL    HW152144   6.324   5.994   8.691  0.2171  0.2619 -0.3918
16901SOL    HW252145   6.275   6.102   8.598 -0.3827 -0.1806 -0.5968
16902SOL     OW52146   0.304   1.118   6.530 -0.0298  0.2828 -0.3189
16902SOL    HW152147   0.294   1.025   6.549  0.1599  0.4945  0.8939
16902SOL    HW252148   0.222   1.143   6.487 -0.3377 -0.3107 -0.0859
16903SOL     OW52149   3.358   0.176   0.705  0.3814 -0.2944 -0.2342
16903SOL    HW152150   3.293   0.172   0.635  1.3344  2.2789 -1.4097
16903SOL    HW252151   3.423   0.109   0.682  0.1790 -0.1395 -1.3067
16904SOL     OW52152   4.427   2.546   1.092 -0.0147  0.0981 -0.0578
16904SOL    HW152153   4.438   2.510   1.004 -0.9115  2.4243 -1.2312
16904SOL    HW252154   4.362   2.490   1.134  1.1113 -1.5970 -0.5055
16905SOL     OW52155   6.275   4.507  11.601  0.0161 -0.0020 -0.3093
16905SOL    HW152156   6.333   4.449  11.552  1.1262 -0.2026  1.1787
16905SOL    HW252157   6.327   4.586  11.616  0.1779 -0.4253  1.5866
16906SOL     OW52158   6.667   1.183  10.816  0.4341 -0.0058  0.0900
16906SOL    HW152159   6.610   1.107  10.804  0.6653 -0.2361  0.4219
16906SOL    HW252160   6.744   1.164  10.763  0.4336  0.0599  0.0662
16907SOL     OW52161   3.402   6.985   3.429 -0.6008  0.3261  0.1759
16907SOL    HW152162   3.383   6.949   3.515  0.7934  1.1387  0.8680
16907SOL    HW252163   3.497   6.981   3.421 -0.7669 -0.8477 -1.8565
16908SOL     OW52164   4.551   3.667  12.093  0.0076  0.2001  0.0170
16908SOL    HW152165   4.509   3.650  12.178  0.5800  1.3375  0.5477
16908SOL    HW252166   4.545   3.583  12.047 -2.8105  0.2978  0.0467
16909SOL     OW52167   6.516   6.378   0.736  0.0957 -0.0037 -1.2857
16909SOL    HW152168   6.477   6.394   0.822 -0.1925 -0.4500 -1.3269
16909SOL    HW252169   6.460   6.426   0.675 -0.6369 -0.9521 -1.3869
16910SOL     OW52170   4.572   1.648   5.101 -0.4061  0.3210 -0.2165
16910SOL    HW152171   4.581   1.570   5.046 -1.5423 -0.0896  0.1475
16910SOL    HW252172   4.624   1.629   5.178 -3.6001 -1.8222  1.6658
16911SOL     OW52173   6.529   1.445   2.741 -0.2033  0.5512 -0.3007
16911SOL    HW152174   6.534   1.437   2.836 -0.2358  0.3253 -0.3187
16911SOL    HW252175   6.441   1.416   2.719  0.6130 -1.8559 -0.6461
16912SOL     OW52176   5.830   6.732   1.107  0.0359 -0.1365  0.2022
16912SOL    HW152177   5.787   6.780   1.178  0.9649 -0.3280  0.9135
16912SOL    HW252178   5.911   6.781   1.090  0.0695 -0.3799 -0.3761
16913SOL     OW52179   4.935   0.291   0.725  0.1973 -0.2772 -0.2567
16913SOL    HW152180   4.908   0.313   0.636 -1.8734 -0.8169  0.1805
16913SOL    HW252181   5.001   0.223   0.714 -1.1115 -1.4198 -1.3811
16914SOL     OW52182   2.511   6.054   9.774  0.1872  0.6113 -0.1904
16914SOL    HW152183   2.524   6.026   9.684  0.9206 -1.2412  0.4531
16914SOL    HW252184   2.416   6.054   9.786  0.1146  0.1685 -0.7522
16915SOL     OW52185   1.563   4.855   8.866  0.4642  0.2574 -0.1885
16915SOL    HW152186   1.592   4.787   8.804 -0.2135 -1.4184  1.2608
16915SOL    HW252187   1.523   4.922   8.811 -0.9953 -1.6192 -1.5345
16916SOL     OW52188   4.895   7.005   0.160 -0.0594 -0.5132  0.1838
16916SOL    HW152189   4.945   7.042   0.087 -0.0301 -0.8261  0.0402
16916SOL    HW252190   4.932   6.917   0.171 -1.3775 -1.2057 -0.7217
16917SOL     OW52191   7.518   0.866   5.672 -0.1587  0.3034  0.7965
16917SOL    HW152192   7.493   0.954   5.644  0.0643 -0.3723 -1.7782
16917SOL    HW252193   7.603   0.878   5.715  0.5842  1.2327 -0.8270
16918SOL     OW52194   2.094   4.276   7.119  0.1223  0.6403 -0.0914
16918SOL    HW152195   2.048   4.334   7.058  0.7552  0.6957 -0.5231
16918SOL    HW252196   2.141   4.215   7.063  1.5756  1.3653  0.2945
16919SOL     OW52197   0.260   3.517   7.018 -0.2986 -0.2686 -0.1485
16919SOL    HW152198   0.292   3.602   6.988  1.4241 -0.4581  1.0040
16919SOL    HW252199   0.179   3.537   7.066  0.1949  0.7525  0.2846
16920SOL     OW52200   0.868   1.023   9.821  0.6110  0.0790 -0.2705
16920SOL    HW152201   0.903   1.101   9.780 -1.5415  1.0292 -0.4485
16920SOL    HW252202   0.773   1.034   9.817  0.2608 -1.8285  1.0814
16921SOL     OW52203   1.859   4.345   8.415  0.4673  0.4207 -0.2170
16921SOL    HW152204   1.914   4.366   8.490 -0.2769  1.4816  0.0501
16921SOL    HW252205   1.779   4.307   8.454  0.5233 -0.0376 -0.5373
16922SOL     OW52206   5.224   2.996   2.847  0.3867  0.1487  0.3491
16922SOL    HW152207   5.309   2.978   2.808 -0.4652 -3.1363 -0.3011
16922SOL    HW252208   5.233   2.969   2.939  0.1340  0.1143  0.3664
16923SOL     OW52209   2.670   4.001   6.239 -0.0880  0.0308  0.0765
16923SOL    HW152210   2.639   4.054   6.313 -0.2230  0.2705 -0.1499
16923SOL    HW252211   2.693   3.917   6.278 -1.3160 -0.2608  0.2098
16924SOL     OW52212   5.917   5.589   4.243 -0.1115 -0.6024  0.2837
16924SOL    HW152213   5.930   5.521   4.177  2.2010 -0.7104  0.7731
16924SOL    HW252214   5.934   5.671   4.197 -2.4988 -0.2925 -0.2010
16925SOL     OW52215   1.782   7.726   0.398  0.2500 -0.4019  0.7824
16925SOL    HW152216   1.837   7.720   0.320 -0.3794  1.3517  0.1530
16925SOL    HW252217   1.701   7.681   0.374  0.8208 -1.7061  1.2009
16926SOL     OW52218   6.390   7.443   4.357 -0.1326  0.0348 -0.1342
16926SOL    HW152219   6.455   7.493   4.306 -0.9154 -0.6510 -1.8851
16926SOL    HW252220   6.439   7.370   4.394  0.4691  0.5971  0.2148
16927SOL     OW52221   3.084   5.101   1.599 -0.1985 -0.0951 -0.4155
16927SOL    HW152222   3.032   5.180   1.615  0.7253  0.2861  0.8368
16927SOL    HW252223   3.024   5.028   1.618 -0.6694  0.3138 -0.3159
16928SOL     OW52224   6.695   2.309  10.079 -0.3800  0.4803  0.4943
16928SOL    HW152225   6.628   2.242  10.063  0.1710 -0.4515  1.8684
16928SOL    HW252226   6.709   2.350   9.994 -2.6912  0.7219  0.1647
16929SOL     OW52227   1.270   2.391   3.432  0.3448 -0.7537  0.1674
16929SOL    HW152228   1.332   2.461   3.411 -0.9942  1.2666  2.3357
16929SOL    HW252229   1.323   2.312   3.438  2.4213  0.5660  0.2832
16930SOL     OW52230   6.163   2.529   6.148  0.6238 -0.0169  0.2250
16930SOL    HW152231   6.247   2.484   6.141  0.2838 -0.6794  0.3328
16930SOL    HW252232   6.178   2.613   6.105  0.6139 -1.1366 -2.1038
16931SOL     OW52233   2.680   4.289   0.945  0.0333 -0.2859  0.1423
16931SOL    HW152234   2.685   4.384   0.939 -2.7768 -0.1490 -2.3911
16931SOL    HW252235   2.603   4.272   0.998 -0.4025 -1.0750 -0.7037
16932SOL     OW52236   2.307   3.777   5.627 -0.0795 -0.3304 -0.4202
16932SOL    HW152237   2.311   3.726   5.708  0.8709 -1.5106 -1.1606
16932SOL    HW252238   2.214   3.795   5.613 -0.3959 -1.5229  0.0876
16933SOL     OW52239   5.296   1.329   7.148  0.2698 -1.0739 -0.3029
16933SOL    HW152240   5.286   1.266   7.077 -1.4943 -1.4882  0.2633
16933SOL    HW252241   5.210   1.369   7.158  1.2056  1.1258 -0.3098
16934SOL     OW52242   0.573   3.405   0.619 -0.1425 -0.3201  0.4586
16934SOL    HW152243   0.613   3.354   0.548 -0.5275 -1.2640  0.9127
16934SOL    HW252244   0.519   3.470   0.573 -0.5061 -1.0141 -0.1254
16935SOL     OW52245   5.701   4.352   0.653  0.1044  0.2592 -1.0664
16935SOL    HW152246   5.744   4.343   0.568  0.6738  1.7073 -0.9646
16935SOL    HW252247   5.727   4.439   0.684 -0.8690  0.1458  0.1595
16936SOL     OW52248   2.743   7.369   7.293  0.3716  0.1816 -0.2345
16936SOL    HW152249   2.834   7.349   7.316  0.8951  1.9866 -0.6225
16936SOL    HW252250   2.747   7.404   7.205 -0.6802  0.4995 -0.1688
16937SOL     OW52251   5.678   7.326   8.910  0.3025 -0.0369 -0.9053
16937SOL    HW152252   5.653   7.373   8.831 -0.1508  0.9582 -0.1971
16937SOL    HW252253   5.621   7.362   8.979  1.8122  0.3368  0.2057
16938SOL     OW52254   1.527   0.826   9.719  0.1247 -0.6452 -1.0077
16938SOL    HW152255   1.555   0.768   9.648  0.3521 -1.9993  0.1633
16938SOL    HW252256   1.460   0.776   9.766  0.6181 -0.1323  0.2707
16939SOL     OW52257   0.562   7.051   9.566  0.2297 -0.1579  0.6536
16939SOL    HW152258   0.646   7.028   9.525 -0.4102 -1.4183 -0.0062
16939SOL    HW252259   0.573   7.028   9.658  1.0177  0.8779  0.8457
16940SOL     OW52260   5.317   1.685  10.831 -0.7155  0.0836  0.1277
16940SOL    HW152261   5.349   1.625  10.764 -0.6334  1.2907 -0.9467
16940SOL    HW252262   5.360   1.656  10.912  0.3938 -0.4478 -0.6276
16941SOL     OW52263   5.976   5.125   2.863 -0.1254  0.6857 -0.3693
16941SOL    HW152264   5.914   5.186   2.822 -1.7033 -1.0080 -0.6395
16941SOL    HW252265   6.036   5.101   2.792 -0.5446  0.6456 -0.7201
16942SOL     OW52266   2.653   2.321  11.936  0.0363  0.3262 -0.1369
16942SOL    HW152267   2.726   2.261  11.946 -0.8673 -0.6108  1.0966
16942SOL    HW252268   2.619   2.303  11.848 -0.0213 -0.7602  0.0983
16943SOL     OW52269   0.028   4.954   9.401  0.1317 -0.2532 -0.3168
16943SOL    HW152270  -0.037   4.910   9.455 -0.5460 -0.5022 -1.2944
16943SOL    HW252271   0.089   4.994   9.463 -0.8429 -0.1758  0.6149
16944SOL     OW52272   2.838   7.385   7.013  0.3390 -0.3888 -0.2316
16944SOL    HW152273   2.824   7.419   6.924  0.8127  0.6723  0.0823
16944SOL    HW252274   2.921   7.425   7.041  0.5251 -1.2240  0.4503
16945SOL     OW52275   2.567   6.938   4.069 -0.0572  0.1125 -0.4730
16945SOL    HW152276   2.591   6.849   4.044 -1.2145  0.0215 -1.3661
16945SOL    HW252277   2.538   6.931   4.160  0.8175 -0.2236 -0.2102
16946SOL     OW52278   7.906   3.859   7.237 -0.3254 -0.3196 -0.3757
16946SOL    HW152279   7.896   3.853   7.332 -1.0353 -1.2700 -0.4906
16946SOL    HW252280   7.918   3.952   7.219  3.2448 -0.3975  0.9356
16947SOL     OW52281   5.726   1.924   2.999  0.3838  0.6386 -0.6494
16947SOL    HW152282   5.646   1.884   3.030  1.8018 -2.1223 -0.2393
16947SOL    HW252283   5.704   1.961   2.914 -1.3142  0.0635 -0.4796
16948SOL     OW52284   2.378   7.852   4.402  0.2534 -0.0350  0.0314
16948SOL    HW152285   2.329   7.888   4.475 -0.7633 -0.3355 -0.4944
16948SOL    HW252286   2.373   7.920   4.334 -0.0911 -0.3837 -0.2943
16949SOL     OW52287   2.566   4.476   3.098 -0.6059  0.2559  0.2492
16949SOL    HW152288   2.611   4.513   3.174  1.3457 -2.2509  0.4575
16949SOL    HW252289   2.508   4.409   3.135 -0.2459 -0.4259 -0.3988
16950SOL     OW52290   1.202   6.647   9.666  0.1160  0.0772 -0.0160
16950SOL    HW152291   1.259   6.679   9.736 -0.7322  1.5785  0.0018
16950SOL    HW252292   1.212   6.710   9.595 -1.1368  0.0825 -0.2112
16951SOL     OW52293   3.046   6.890  10.277  0.4173 -0.2104 -0.1918
16951SOL    HW152294   3.025   6.905  10.369 -0.3713  0.3220 -0.4577
16951SOL    HW252295   2.975   6.835  10.244 -1.2806  2.5176 -1.3872
16952SOL     OW52296   3.705   4.255  11.994 -0.4546 -0.1250 -0.7732
16952SOL    HW152297   3.776   4.274  11.933 -1.6776 -0.1335 -2.2529
16952SOL    HW252298   3.654   4.185  11.952  0.1593 -2.0789  1.5068
16953SOL     OW52299   1.442   4.181  11.198 -0.2444 -0.1732 -0.0577
16953SOL    HW152300   1.489   4.148  11.275 -1.2049  0.4178  0.8206
16953SOL    HW252301   1.354   4.198  11.230 -0.5016  0.6721 -1.1465
16954SOL     OW52302   2.183   5.590   3.456 -0.1142 -0.4303  0.0965
16954SOL    HW152303   2.121   5.567   3.526 -1.9143 -0.2839 -1.3734
16954SOL    HW252304   2.165   5.527   3.386  0.7354  0.2418 -0.7591
16955SOL     OW52305   4.523   7.320   5.745 -0.5186  0.1766  0.3817
16955SOL    HW152306   4.604   7.331   5.795 -0.6075  0.2499  0.5105
16955SOL    HW252307   4.511   7.226   5.740 -0.4928  0.1679  0.4720
16956SOL     OW52308   7.091   5.952   0.721  0.0127  0.1681  0.2242
16956SOL    HW152309   7.182   5.976   0.737 -0.1013  0.2623  0.7474
16956SOL    HW252310   7.049   6.035   0.698 -0.3421  0.4679  1.8563
16957SOL     OW52311   4.464   7.002   5.442  0.0338 -0.8728 -0.0541
16957SOL    HW152312   4.439   7.025   5.531  2.6538 -0.7104  0.7221
16957SOL    HW252313   4.384   7.013   5.390 -1.2725  0.0726  2.0654
16958SOL     OW52314   3.405   5.998   6.848 -0.0978 -0.1384  0.4946
16958SOL    HW152315   3.438   5.913   6.878  0.8139  0.2664  0.6819
16958SOL    HW252316   3.465   6.062   6.887 -0.7123  0.5872  0.2710
16959SOL     OW52317   2.736   2.140   2.679  0.9626  0.4113  0.0398
16959SOL    HW152318   2.729   2.230   2.649 -0.1979  0.8596  1.5137
16959SOL    HW252319   2.745   2.147   2.774  1.3842 -1.0095  0.1345
16960SOL     OW52320   6.847   5.764   5.783  0.0748 -0.0718  0.3163
16960SOL    HW152321   6.888   5.797   5.863  0.6624  0.2249 -0.0953
16960SOL    HW252322   6.825   5.673   5.803  2.9274 -0.9602 -0.1169
16961SOL     OW52323   5.556   0.011   0.421 -0.0782  0.4097  0.4386
16961SOL    HW152324   5.538  -0.019   0.331 -1.8385  3.5675 -0.4394
16961SOL    HW252325   5.499  -0.043   0.475  0.8514 -1.4142 -0.3219
16962SOL     OW52326   6.865   7.159   0.005 -0.1061 -0.0983 -0.2890
16962SOL    HW152327   6.841   7.192   0.092  0.7654  1.1883 -0.5083
16962SOL    HW252328   6.788   7.179  -0.049  0.5740  2.1674 -0.5358
16963SOL     OW52329   3.386   0.833   7.966 -0.1997 -0.0396  0.1386
16963SOL    HW152330   3.449   0.764   7.985  0.8556  0.7729 -0.3258
16963SOL    HW252331   3.313   0.788   7.924 -0.4675 -1.1540  1.7249
16964SOL     OW52332   6.411   5.611   8.214 -0.6406 -0.7484 -0.0647
16964SOL    HW152333   6.431   5.603   8.121  0.1295 -0.7312  0.0937
16964SOL    HW252334   6.316   5.625   8.217 -0.5934 -0.2041 -0.8714
16965SOL     OW52335   0.512   1.664   0.178  0.4383  0.2744 -0.0432
16965SOL    HW152336   0.592   1.702   0.141  1.2594  0.8547  2.1655
16965SOL    HW252337   0.515   1.572   0.153  0.2523  0.8813 -2.4726
16966SOL     OW52338   6.553   6.586   4.039  0.1812 -0.7538 -0.2787
16966SOL    HW152339   6.573   6.675   4.068  0.6207 -0.5447 -1.1664
16966SOL    HW252340   6.538   6.595   3.945 -1.5597 -1.3423 -0.0801
16967SOL     OW52341   4.953   3.574   4.835 -0.1706 -0.1760 -0.0429
16967SOL    HW152342   5.031   3.628   4.844 -0.3642 -0.0990  1.6494
16967SOL    HW252343   4.896   3.623   4.775  1.3484 -0.6177 -1.9217
16968SOL     OW52344   4.106   3.760   1.982  0.6859 -0.1320  0.8578
16968SOL    HW152345   4.164   3.713   1.922  0.2447  0.6354 -0.2275
16968SOL    HW252346   4.018   3.748   1.944  0.1948 -0.7840  2.1406
16969SOL     OW52347   7.458   6.714   9.302  0.0347  0.2066  0.2850
16969SOL    HW152348   7.363   6.702   9.309  0.0056 -0.2679 -0.8052
16969SOL    HW252349   7.490   6.699   9.391 -0.7676 -0.9532  0.3982
16970SOL     OW52350   4.818   1.017   1.468  0.3650 -0.3287 -0.1017
16970SOL    HW152351   4.814   1.033   1.374  2.3194  0.1185 -0.1509
16970SOL    HW252352   4.907   0.985   1.484 -0.1995 -1.2264  1.4804
16971SOL     OW52353   6.698   1.047   2.009 -0.0988  0.1274  0.5097
16971SOL    HW152354   6.622   0.988   2.006 -0.4538  0.5277  1.2021
16971SOL    HW252355   6.730   1.039   2.099 -0.5088  1.4033  0.8017
16972SOL     OW52356   6.241   2.749   5.275 -0.3603  0.2835  0.0645
16972SOL    HW152357   6.288   2.719   5.354  0.4139  0.0220 -0.4775
16972SOL    HW252358   6.149   2.748   5.300 -0.1117  0.3802  1.0261
16973SOL     OW52359   6.445   0.220   5.175  0.6799 -0.2092 -0.1203
16973SOL    HW152360   6.491   0.270   5.107 -1.6295  2.8257  0.3206
16973SOL    HW252361   6.452   0.274   5.253 -1.1883 -0.9908  0.6473
16974SOL     OW52362   7.264   0.153   2.026 -0.2334  0.3984 -0.1384
16974SOL    HW152363   7.246   0.188   1.939  0.6191  0.7529 -0.1886
16974SOL    HW252364   7.242   0.226   2.086 -1.3186 -0.0194 -0.0006
16975SOL     OW52365   4.128   1.974  10.304  0.2681 -0.0875  0.2953
16975SOL    HW152366   4.137   1.911  10.233  0.9919 -1.7427  1.7770
16975SOL    HW252367   4.051   1.944  10.353 -0.0753  0.8866  0.3707
16976SOL     OW52368   4.790   1.995   1.471 -0.6236 -0.0339  0.1535
16976SOL    HW152369   4.743   1.953   1.400  0.0004 -1.3704  0.4866
16976SOL    HW252370   4.880   1.962   1.463 -0.2564  0.7591  0.8231
16977SOL     OW52371   0.989   2.118   9.584 -0.3845 -0.5129 -0.0949
16977SOL    HW152372   1.018   2.027   9.590  0.7457 -0.1665 -0.1969
16977SOL    HW252373   1.035   2.164   9.654 -0.2437  0.1538 -0.6075
16978SOL     OW52374   6.439   0.795  12.282  0.2294  0.0096  0.4478
16978SOL    HW152375   6.434   0.889  12.298  1.5505  0.1768  0.0372
16978SOL    HW252376   6.525   0.782  12.242 -0.1380 -1.3078  0.0243
16979SOL     OW52377   7.050   4.463   3.543 -0.8441 -0.2165  0.1836
16979SOL    HW152378   7.141   4.492   3.536 -0.4376 -1.4331  0.1663
16979SOL    HW252379   7.025   4.484   3.632  0.1550 -1.6974  0.8663
16980SOL     OW52380   2.713   5.652   3.217  0.2981  0.1490 -0.1712
16980SOL    HW152381   2.674   5.577   3.261  0.2588  0.4710  0.3444
16980SOL    HW252382   2.755   5.703   3.287  1.0724  0.1530 -0.6259
16981SOL     OW52383   2.233   5.186   2.729  0.2763  0.2754  0.7585
16981SOL    HW152384   2.152   5.218   2.768  0.5173  1.4682  0.3081
16981SOL    HW252385   2.208   5.103   2.687 -0.6781  0.5709  0.7168
16982SOL     OW52386   0.487   5.958   3.199  0.2608  0.1918  0.2211
16982SOL    HW152387   0.448   5.924   3.118  0.0449  0.2056  0.3175
16982SOL    HW252388   0.419   5.944   3.266  0.6249 -0.2857  0.5034
16983SOL     OW52389   5.528   3.118   0.977  0.2126  0.1198  0.3476
16983SOL    HW152390   5.481   3.040   0.948 -0.2176  0.2662  0.6427
16983SOL    HW252391   5.524   3.114   1.073 -0.1103  0.6774  0.3644
16984SOL     OW52392   0.851   0.036   1.712  0.0012 -0.0718  0.1168
16984SOL    HW152393   0.829   0.129   1.701 -0.9903 -0.2891  0.1462
16984SOL    HW252394   0.915   0.018   1.643  0.1519  0.6111  0.0657
16985SOL     OW52395   3.594   4.235   2.476 -0.0856  0.3943  0.1319
16985SOL    HW152396   3.585   4.140   2.470 -0.9454  0.5586 -2.2913
16985SOL    HW252397   3.636   4.260   2.394 -1.8219  2.2886 -0.2521
16986SOL     OW52398   2.925   3.136   3.412 -0.4707 -0.1399  0.6102
16986SOL    HW152399   2.970   3.190   3.347  0.2460 -0.2595  1.0031
16986SOL    HW252400   2.832   3.147   3.391 -0.2360 -1.2646 -1.3251
16987SOL     OW52401   0.038   7.712   4.164  0.4732 -0.1548 -0.2932
16987SOL    HW152402   0.016   7.792   4.116  0.9677  1.0282  1.3535
16987SOL    HW252403  -0.040   7.694   4.217 -0.1263 -1.5340 -1.5738
16988SOL     OW52404   5.437   0.638  10.744 -0.0542 -0.1639  0.6521
16988SOL    HW152405   5.522   0.594  10.745  0.1831  0.2504  0.0399
16988SOL    HW252406   5.459   0.732  10.746 -0.3016  0.0949 -2.7841
16989SOL     OW52407   3.343   6.080   2.329 -0.2656  0.0056 -0.4217
16989SOL    HW152408   3.399   6.131   2.387  1.2773 -1.0915 -0.8798
16989SOL    HW252409   3.257   6.082   2.371  0.2169  1.2919  0.5828
16990SOL     OW52410   2.430   7.335   6.654  0.1878  0.0858 -0.2427
16990SOL    HW152411   2.344   7.338   6.610 -0.9068  0.2300  1.8014
16990SOL    HW252412   2.461   7.245   6.639  0.1621  0.3007 -1.7947
16991SOL     OW52413   5.174   4.836   2.820  0.6067 -0.4999  0.3446
16991SOL    HW152414   5.118   4.912   2.837  1.4315  0.2718 -0.2890
16991SOL    HW252415   5.222   4.822   2.902 -0.4813 -1.1694  0.8919
16992SOL     OW52416   7.907   6.162   8.559 -0.0819 -0.0798  0.0815
16992SOL    HW152417   7.823   6.128   8.529 -0.2189 -0.1859  0.5668
16992SOL    HW252418   7.954   6.185   8.479 -0.6533  0.1825 -0.1836
16993SOL     OW52419   4.665   6.980  10.394 -0.5165 -0.2054 -0.3557
16993SOL    HW152420   4.739   6.928  10.362 -1.4930 -0.4700 -2.3053
16993SOL    HW252421   4.679   6.985  10.489  1.9512 -0.2894 -0.6456
16994SOL     OW52422   0.587   7.759  12.273 -1.0519  0.1103 -0.0487
16994SOL    HW152423   0.495   7.733  12.279 -0.9217 -0.1436  1.0601
16994SOL    HW252424   0.633   7.678  12.252 -0.9878  0.0458  0.3272
16995SOL     OW52425   1.890   7.668  11.905 -0.3346  0.1534 -0.1693
16995SOL    HW152426   1.880   7.587  11.854  0.6578 -0.3101  0.3412
16995SOL    HW252427   1.845   7.734  11.853 -2.5999 -1.0085  0.1688
16996SOL     OW52428   0.770   5.198   3.427  0.5789 -0.5595 -1.1662
16996SOL    HW152429   0.799   5.228   3.340 -0.3278  0.2026 -1.2208
16996SOL    HW252430   0.687   5.243   3.441  0.3445 -1.2654 -0.2176
16997SOL     OW52431   5.260   0.411   5.203 -0.0916  0.8673  0.0856
16997SOL    HW152432   5.265   0.505   5.224  3.6795  0.3529  2.5241
16997SOL    HW252433   5.276   0.406   5.109 -1.2604  2.6785 -0.2486
16998SOL     OW52434   4.498   1.291   9.906  0.1332 -0.0515 -0.4148
16998SOL    HW152435   4.475   1.322   9.993 -0.0044  1.2563 -0.8970
16998SOL    HW252436   4.499   1.196   9.914 -0.8099  0.0140  0.7792
16999SOL     OW52437   0.934   6.505   4.221  0.0276 -0.3659 -0.1369
16999SOL    HW152438   0.866   6.465   4.166 -0.2983 -0.5294  0.3785
16999SOL    HW252439   0.996   6.543   4.159 -0.5103 -0.2605 -0.6171
17000SOL     OW52440   3.666   6.182   3.279  0.0842  0.1933  0.1113
17000SOL    HW152441   3.586   6.186   3.332 -0.0469 -1.9404  0.1664
17000SOL    HW252442   3.706   6.268   3.290 -1.5504  0.8895  1.1068
17001SOL     OW52443   3.194   0.398  10.141 -0.5030 -0.2189  0.0275
17001SOL    HW152444   3.137   0.345  10.086 -0.1032  0.2039 -0.8108
17001SOL    HW252445   3.274   0.346  10.150 -0.7240 -0.4714  0.5615
17002SOL     OW52446   0.945   3.522   6.865 -0.1683 -0.5831 -0.4094
17002SOL    HW152447   0.919   3.526   6.773  0.6019  1.2132 -0.5880
17002SOL    HW252448   0.899   3.445   6.899 -2.9667  0.4333 -1.5288
17003SOL     OW52449   6.381   4.895  11.188  0.3718  0.2873  0.6618
17003SOL    HW152450   6.409   4.807  11.161 -1.6421 -0.3657  0.5776
17003SOL    HW252451   6.330   4.880  11.267 -0.2872  1.3572  0.4468
17004SOL     OW52452   1.563   5.336  12.065  0.4298 -0.3124 -0.4265
17004SOL    HW152453   1.598   5.272  12.127  0.1462  0.0518  0.1177
17004SOL    HW252454   1.468   5.323  12.068  0.4448 -0.7464 -1.2949
17005SOL     OW52455   6.678   2.295  11.976  0.4164  0.3557 -0.0811
17005SOL    HW152456   6.629   2.264  11.900 -1.1653  0.4030  0.8751
17005SOL    HW252457   6.761   2.328  11.940 -0.8067  1.5879 -1.9450
17006SOL     OW52458   6.016   2.652   5.416  0.0540  0.1522  0.5109
17006SOL    HW152459   5.972   2.567   5.404  3.7658 -2.0743  0.9554
17006SOL    HW252460   5.986   2.705   5.343 -0.7731 -2.3469 -1.1169
17007SOL     OW52461   7.874   3.185   9.285  0.1230  0.1129 -0.1807
17007SOL    HW152462   7.792   3.176   9.235 -0.0692  0.1310  0.1312
17007SOL    HW252463   7.868   3.271   9.325  0.3937  0.2006 -0.3313
17008SOL     OW52464   1.931   1.642  10.825 -0.5474 -0.1220 -0.6028
17008SOL    HW152465   1.920   1.548  10.812 -1.0255 -0.0915 -0.4321
17008SOL    HW252466   1.974   1.673  10.745  1.0547 -0.7334 -0.0154
17009SOL     OW52467   2.400   3.912   8.501  0.3128 -0.0807  0.1853
17009SOL    HW152468   2.393   3.978   8.432  0.4616 -0.5265 -0.2589
17009SOL    HW252469   2.315   3.914   8.545 -0.3863 -0.9451 -1.0577
17010SOL     OW52470   7.414   6.241  10.113 -0.1298  0.4052  0.3748
17010SOL    HW152471   7.460   6.246  10.030 -0.7249 -1.4801 -0.1076
17010SOL    HW252472   7.328   6.281  10.095  0.0105  0.6808  0.3071
17011SOL     OW52473   2.998   2.315   0.185 -0.2078  0.7068 -0.0091
17011SOL    HW152474   2.996   2.348   0.275 -0.9634  1.6886 -0.3704
17011SOL    HW252475   3.049   2.234   0.191  0.1839  1.0162  1.2103
17012SOL     OW52476   4.725   1.879   7.192  0.0971 -0.7974 -0.3366
17012SOL    HW152477   4.760   1.932   7.264  1.4821 -1.9097 -0.1342
17012SOL    HW252478   4.653   1.931   7.157 -0.2745  0.0283  1.4978
17013SOL     OW52479   1.780   7.839   3.664 -0.4570  0.8575 -0.8312
17013SOL    HW152480   1.773   7.743   3.661  0.8191  0.7501 -1.5700
17013SOL    HW252481   1.702   7.868   3.711  0.4798 -0.7204  1.9276
17014SOL     OW52482   3.174   6.454  10.356 -0.4998  0.0122 -0.1366
17014SOL    HW152483   3.191   6.532  10.304 -1.2447 -0.2254 -0.7472
17014SOL    HW252484   3.260   6.413  10.366 -0.3296  0.1090 -1.1022
17015SOL     OW52485   1.661   7.868   4.575  0.0314  0.0666 -0.4900
17015SOL    HW152486   1.685   7.778   4.593 -2.4488 -0.8808 -1.4107
17015SOL    HW252487   1.740   7.919   4.594  1.2608 -2.1728  0.8100
17016SOL     OW52488   6.360   2.550   9.833  0.5343  0.5050  0.1036
17016SOL    HW152489   6.446   2.587   9.855  0.2494 -0.5926  3.7907
17016SOL    HW252490   6.297   2.613   9.869 -0.0752 -0.5570  0.9589
17017SOL     OW52491   4.058   5.043   6.001 -0.3469  0.3596 -0.0324
17017SOL    HW152492   4.002   5.072   5.929 -0.0136  0.8347 -0.1079
17017SOL    HW252493   4.099   5.124   6.032  0.6179 -0.0425 -0.2461
17018SOL     OW52494   7.290   0.105   3.056  0.0709  0.2758  0.2801
17018SOL    HW152495   7.270   0.199   3.056  1.0171  0.4948 -0.6129
17018SOL    HW252496   7.366   0.097   3.115 -0.1686  0.0263  0.5586
17019SOL     OW52497   7.460   2.179  10.616 -0.1618  0.5783 -0.5371
17019SOL    HW152498   7.540   2.138  10.650 -1.2382 -0.5655  0.7600
17019SOL    HW252499   7.455   2.263  10.662 -0.0622  0.3368 -0.0774
17020SOL     OW52500   2.518   1.273   3.197  0.5987  0.0425 -0.1709
17020SOL    HW152501   2.458   1.205   3.225  1.0759  0.4669  2.0076
17020SOL    HW252502   2.601   1.228   3.185  1.1815  0.3380  2.3029
17021SOL     OW52503   7.299   4.980   4.887 -0.3345 -0.5731 -0.0314
17021SOL    HW152504   7.318   5.015   4.800 -0.5901 -2.6064 -0.9584
17021SOL    HW252505   7.379   4.998   4.937 -0.8003  2.1440 -0.0936
17022SOL     OW52506   6.646   7.790   9.634  0.1727 -0.0821 -0.0501
17022SOL    HW152507   6.728   7.817   9.592 -0.0937 -0.3503 -0.7599
17022SOL    HW252508   6.585   7.860   9.612  0.6255  1.0341  1.9550
17023SOL     OW52509   2.008   2.902   4.095 -0.3561  0.4634  0.3375
17023SOL    HW152510   2.011   2.935   4.185 -0.6583  0.8829  0.2005
17023SOL    HW252511   2.033   2.810   4.102 -1.3698  0.2267  0.9837
17024SOL     OW52512   1.374   5.839   7.056  0.2054 -0.1366 -0.4817
17024SOL    HW152513   1.442   5.829   7.123  0.8755 -0.1471 -1.1551
17024SOL    HW252514   1.370   5.933   7.039 -1.3161  0.1117  0.9263
17025SOL     OW52515   1.319   1.641   7.441  0.1687  0.0094  0.6602
17025SOL    HW152516   1.327   1.571   7.376 -1.2802 -1.0511  1.5700
17025SOL    HW252517   1.394   1.629   7.499  0.4176 -0.2223  0.2931
17026SOL     OW52518   3.368   4.747  10.181  0.5395  0.0799  0.2681
17026SOL    HW152519   3.463   4.742  10.180  0.5747  0.6216  0.7821
17026SOL    HW252520   3.339   4.656  10.169  1.1273 -0.6457  3.4380
17027SOL     OW52521   0.784   0.465   7.552  0.9427  0.1511 -0.2415
17027SOL    HW152522   0.714   0.530   7.562  0.3990 -0.2980 -1.0442
17027SOL    HW252523   0.794   0.428   7.640  1.4540  1.4910  0.2997
17028SOL     OW52524   1.245   0.865  11.960 -0.0793 -0.4761 -0.1920
17028SOL    HW152525   1.277   0.949  11.929 -1.3382  1.1958  2.6191
17028SOL    HW252526   1.287   0.800  11.904  1.9305  1.9473 -1.6535
17029SOL     OW52527   7.199   1.859  10.745  0.6825 -0.0952  0.0729
17029SOL    HW152528   7.274   1.849  10.804  1.8260 -1.5804 -1.5359
17029SOL    HW252529   7.161   1.771  10.741  0.2055  0.1504 -0.8448
17030SOL     OW52530   6.013   4.630  11.719 -0.0959  0.2338 -0.1569
17030SOL    HW152531   6.074   4.671  11.780  0.7865  0.2036 -0.9865
17030SOL    HW252532   6.068   4.577  11.661 -1.0235 -0.6143 -0.2970
17031SOL     OW52533   2.137   1.038   4.463  0.2883  0.4303 -0.6060
17031SOL    HW152534   2.208   1.070   4.519  0.9494 -0.0494 -1.1559
17031SOL    HW252535   2.103   0.961   4.509  0.0306  0.7359 -0.2778
17032SOL     OW52536   2.140   0.649   5.283 -0.4087 -0.3023  0.2413
17032SOL    HW152537   2.144   0.624   5.190  0.0867  4.1133 -1.1704
17032SOL    HW252538   2.078   0.588   5.321 -0.4631 -2.4870 -2.9067
17033SOL     OW52539   5.137   7.402   4.286  0.8150  0.5820 -0.5547
17033SOL    HW152540   5.213   7.387   4.230  0.3377  2.0191 -1.6315
17033SOL    HW252541   5.153   7.346   4.363  2.0069 -0.6017 -1.6068
17034SOL     OW52542   1.022   5.810  11.799 -0.3771  0.3956  0.3648
17034SOL    HW152543   1.111   5.822  11.832 -0.6917 -0.1325  1.4429
17034SOL    HW252544   0.999   5.895  11.760  0.2961  0.7835  0.7938
17035SOL     OW52545   0.456   1.276  10.139 -1.4323  0.0115  0.1058
17035SOL    HW152546   0.365   1.259  10.165 -2.0541  1.9843 -0.6121
17035SOL    HW252547   0.449   1.332  10.062  0.4131 -1.0308 -0.8819
17036SOL     OW52548   3.953   6.114   3.363  0.0050  0.3298 -0.7667
17036SOL    HW152549   3.864   6.141   3.339  0.2945  2.0662 -0.0362
17036SOL    HW252550   3.997   6.195   3.386  2.4376 -0.2369 -3.0239
17037SOL     OW52551   4.338   2.934   4.961 -0.0395 -0.2566  0.2023
17037SOL    HW152552   4.433   2.925   4.959 -0.0693 -0.8013  0.7666
17037SOL    HW252553   4.317   2.948   5.053 -0.5541 -0.8547  0.1890
17038SOL     OW52554   1.004   5.040   6.149  0.3103  0.0508  0.1794
17038SOL    HW152555   1.053   4.967   6.186  0.9133 -0.0620 -0.8319
17038SOL    HW252556   0.912   5.020   6.169  0.6420  0.3083  2.1619
17039SOL     OW52557   1.554   0.846   6.675 -0.2715 -0.5234  0.0930
17039SOL    HW152558   1.607   0.772   6.646  0.0979 -0.7007  1.1811
17039SOL    HW252559   1.509   0.815   6.753 -2.5269 -0.5949 -1.1365
17040SOL     OW52560   6.822   2.637   8.431 -0.3338 -0.4668  0.1132
17040SOL    HW152561   6.813   2.555   8.481  0.2619 -0.2824  0.5349
17040SOL    HW252562   6.747   2.690   8.459 -0.7417 -0.8797 -0.1873
17041SOL     OW52563   3.814   7.457   5.403  0.7307 -0.4054  0.1376
17041SOL    HW152564   3.782   7.420   5.321  2.7797 -1.4414 -0.2697
17041SOL    HW252565   3.837   7.547   5.381 -0.4044 -0.1266  0.0557
17042SOL     OW52566   3.688   4.393  11.429 -0.4689 -0.0228 -0.4055
17042SOL    HW152567   3.758   4.362  11.486  0.0734  0.0527 -1.0236
17042SOL    HW252568   3.648   4.466  11.477  1.8842  1.9979 -1.3371
17043SOL     OW52569   3.373   4.447  11.798  0.7681 -0.0802  0.4479
17043SOL    HW152570   3.424   4.431  11.878 -0.8840 -2.0976  1.1933
17043SOL    HW252571   3.285   4.468  11.830  0.0389 -1.0563 -0.8409
17044SOL     OW52572   0.795   6.852  11.601  0.1089  0.4607 -0.2710
17044SOL    HW152573   0.871   6.824  11.550 -0.7003 -0.5669 -0.9531
17044SOL    HW252574   0.740   6.774  11.609  0.3520  0.4816  2.5142
17045SOL     OW52575   0.855   2.706   8.214  0.1982 -0.4729 -0.6152
17045SOL    HW152576   0.837   2.662   8.131 -0.5262 -1.3828 -0.0046
17045SOL    HW252577   0.950   2.719   8.214  0.4962 -2.3088 -0.7325
17046SOL     OW52578   2.401   2.626   0.512 -0.1505  0.6166 -0.3256
17046SOL    HW152579   2.385   2.717   0.535 -1.3356  0.3552 -0.0251
17046SOL    HW252580   2.435   2.586   0.592  1.5998  1.0470 -0.8064
17047SOL     OW52581   5.589   3.611   2.628  0.3804 -0.0275 -0.2963
17047SOL    HW152582   5.544   3.602   2.544 -3.2622  1.9501  1.2442
17047SOL    HW252583   5.616   3.702   2.632 -0.6449  0.2441  1.1588
17048SOL     OW52584   5.532   0.762  11.515 -0.2643  0.6316  0.0672
17048SOL    HW152585   5.448   0.720  11.494 -0.5206  0.3307  1.6210
17048SOL    HW252586   5.567   0.789  11.429 -1.7818  0.4706 -0.6367
17049SOL     OW52587   0.041   6.877   6.711  0.3293  0.2374  0.6351
17049SOL    HW152588  -0.031   6.842   6.763 -0.1021 -1.3404 -0.8948
17049SOL    HW252589   0.035   6.972   6.722 -2.8425  0.2982 -0.3963
17050SOL     OW52590   4.240   1.450   4.847  0.1171 -0.3303  0.4307
17050SOL    HW152591   4.292   1.445   4.928 -1.8049  0.1129  1.7517
17050SOL    HW252592   4.302   1.482   4.781  1.3194  1.0685  2.1441
17051SOL     OW52593   5.247   4.129   8.521  0.6439 -0.1221 -0.0058
17051SOL    HW152594   5.308   4.091   8.458  0.2433 -1.0954  0.1817
17051SOL    HW252595   5.267   4.085   8.604 -1.1229 -1.3999 -0.2034
17052SOL     OW52596   6.426   7.637   0.670 -0.4963  0.6047 -0.0860
17052SOL    HW152597   6.447   7.572   0.603 -2.4374  0.6270 -0.7918
17052SOL    HW252598   6.506   7.688   0.680  1.5111 -2.5612  1.3834
17053SOL     OW52599   0.899   3.505   6.582  0.2841 -0.0673  0.0603
17053SOL    HW152600   0.947   3.587   6.595  0.8485 -0.3962  0.0855
17053SOL    HW252601   0.819   3.531   6.537 -0.0677  0.6336  1.0656
17054SOL     OW52602   2.161   4.373   2.887 -0.0378  0.2434  0.2041
17054SOL    HW152603   2.193   4.339   2.970 -0.2363  1.9338  1.0118
17054SOL    HW252604   2.236   4.420   2.850 -0.3552  0.7040  0.1315
17055SOL     OW52605   1.246   4.886   9.424 -0.4601  0.5610  0.4493
17055SOL    HW152606   1.269   4.795   9.443 -0.1819  0.7272  0.9248
17055SOL    HW252607   1.320   4.937   9.458 -1.6119  1.1341  2.2130
17056SOL     OW52608   2.944   2.809   8.007 -0.4797 -0.3393 -0.0243
17056SOL    HW152609   2.867   2.840   8.053  0.5791  0.6865  1.1221
17056SOL    HW252610   2.986   2.748   8.068  0.1281 -0.1429 -0.2338
17057SOL     OW52611   3.400   2.841  10.508 -0.1395  0.3049 -0.5246
17057SOL    HW152612   3.360   2.826  10.594  0.1226 -0.9595 -0.5982
17057SOL    HW252613   3.457   2.917  10.521  0.3116 -0.1945  0.5803
17058SOL     OW52614   7.538   4.727   7.509  0.4422 -0.0550 -0.2140
17058SOL    HW152615   7.481   4.692   7.440  0.7902  0.7665 -0.9334
17058SOL    HW252616   7.527   4.822   7.505  2.4794  0.2056 -0.9519
17059SOL     OW52617   1.976   7.132  11.142 -0.1783 -0.1282  0.9701
17059SOL    HW152618   1.911   7.114  11.075 -1.1860  3.7583  0.6269
17059SOL    HW252619   1.945   7.085  11.220 -1.9913 -0.3753  0.1369
17060SOL     OW52620   3.643   4.803   9.985  0.6846 -0.2434 -0.2558
17060SOL    HW152621   3.603   4.715   9.984  0.4072 -0.1538  1.1204
17060SOL    HW252622   3.687   4.808  10.070 -1.1804  1.7477  0.6790
17061SOL     OW52623   1.828   7.194   7.348 -0.0890  0.1141  0.3250
17061SOL    HW152624   1.771   7.160   7.279  2.0249 -0.2698 -1.3189
17061SOL    HW252625   1.878   7.118   7.378  1.4811  0.8768 -0.2211
17062SOL     OW52626   0.597   1.222   4.812 -0.3360  0.5326 -0.1407
17062SOL    HW152627   0.520   1.170   4.789 -0.4653 -0.5885  2.4886
17062SOL    HW252628   0.669   1.159   4.813  0.3966  1.3109 -1.2101
17063SOL     OW52629   3.098   0.063   4.596 -0.2737  0.3224  0.0584
17063SOL    HW152630   3.095   0.147   4.643 -1.8095  0.5703 -0.4435
17063SOL    HW252631   3.191   0.039   4.597 -0.2927 -0.1357  3.9620
17064SOL     OW52632   4.442   6.739   6.662  0.4740  0.2117 -0.3077
17064SOL    HW152633   4.485   6.822   6.683 -0.1584  0.6776 -0.8111
17064SOL    HW252634   4.511   6.673   6.669  0.0685 -0.0982  5.3461
17065SOL     OW52635   6.948   2.012   7.225 -0.3544 -0.0232 -0.1303
17065SOL    HW152636   6.991   1.927   7.235  1.0173  0.7281  0.5127
17065SOL    HW252637   6.933   2.042   7.315 -0.2305  0.7060 -0.3449
17066SOL     OW52638   5.848   6.604   9.853  0.6705 -0.5912  0.0612
17066SOL    HW152639   5.842   6.577   9.945  0.3618 -0.6371  0.0273
17066SOL    HW252640   5.903   6.682   9.855 -1.3711  0.9092  0.5842
17067SOL     OW52641   1.927   4.586   4.741  0.0385  0.4159  0.0425
17067SOL    HW152642   1.840   4.548   4.759 -0.1213  0.4441 -0.6477
17067SOL    HW252643   1.940   4.573   4.647  1.6163 -1.3039  0.4477
17068SOL     OW52644   6.487   4.579   3.434 -0.1035 -0.3831 -0.4484
17068SOL    HW152645   6.536   4.620   3.505  0.1235  0.1896 -0.9253
17068SOL    HW252646   6.548   4.517   3.395  0.4337  0.6656 -1.3425
17069SOL     OW52647   1.449   2.161   7.851  0.0091 -0.2752  0.6320
17069SOL    HW152648   1.520   2.120   7.801 -0.1793  0.8378 -0.6024
17069SOL    HW252649   1.431   2.242   7.804 -1.1023  0.1614  1.7715
17070SOL     OW52650   6.359   1.017   9.568  0.0084 -0.5900  0.4020
17070SOL    HW152651   6.265   1.007   9.554  0.0138 -0.0555 -0.0492
17070SOL    HW252652   6.397   1.012   9.480  0.2554  0.6579  0.4234
17071SOL     OW52653   6.468   1.057   3.552  0.3830 -0.1794  0.2038
17071SOL    HW152654   6.557   1.023   3.542  0.8767  0.4983  1.9497
17071SOL    HW252655   6.479   1.151   3.565 -0.5238 -0.1877  1.1482
17072SOL     OW52656   4.169   7.772   9.163  0.0633  0.7430 -0.2199
17072SOL    HW152657   4.254   7.732   9.179 -0.8645 -0.4682  2.2083
17072SOL    HW252658   4.154   7.828   9.239 -2.3402 -1.0625  0.7634
17073SOL     OW52659   6.613   1.783  10.252 -0.3126 -0.1768 -0.1263
17073SOL    HW152660   6.674   1.856  10.266 -0.8167 -0.0381  1.5369
17073SOL    HW252661   6.661   1.706  10.281 -0.6967 -0.1488  0.5943
17074SOL     OW52662   2.206   5.891   5.659  0.8235  0.1055  0.5495
17074SOL    HW152663   2.246   5.977   5.674  0.6198  0.2128  0.4879
17074SOL    HW252664   2.167   5.868   5.744 -0.3567  0.7273  0.1958
17075SOL     OW52665   3.658   4.283   6.033 -0.0582 -0.4601  0.0284
17075SOL    HW152666   3.631   4.316   5.947 -2.6579 -0.4118  0.7693
17075SOL    HW252667   3.598   4.211   6.050  1.7961 -1.8613  0.9446
17076SOL     OW52668   5.185   2.014   4.770  0.0178 -0.2792  0.1360
17076SOL    HW152669   5.133   1.950   4.722  0.2917 -2.4196  2.4490
17076SOL    HW252670   5.122   2.058   4.827  0.1938 -0.3417  0.3826
17077SOL     OW52671   4.401   5.746   6.168 -0.3789  0.1077  0.0933
17077SOL    HW152672   4.418   5.736   6.075 -1.4746  0.1237 -0.1255
17077SOL    HW252673   4.446   5.672   6.209  0.8380  0.5903 -0.3472
17078SOL     OW52674   1.369   1.806   2.374 -1.0427 -0.1082  0.4012
17078SOL    HW152675   1.437   1.822   2.308 -2.5978 -0.3131 -1.3570
17078SOL    HW252676   1.391   1.721   2.411  0.8674  0.8098  1.5072
17079SOL     OW52677   5.075   4.552   8.476  0.0967 -0.1871 -0.6771
17079SOL    HW152678   5.070   4.533   8.382 -1.1216 -0.8471 -0.5057
17079SOL    HW252679   4.996   4.603   8.494 -0.2047 -0.9167  0.1600
17080SOL     OW52680   5.129   3.241   5.303 -0.2570 -0.2204  0.1623
17080SOL    HW152681   5.073   3.165   5.314 -0.8211  0.3898  1.7273
17080SOL    HW252682   5.072   3.316   5.318  0.5216  0.4950 -0.3085
17081SOL     OW52683   5.453   5.429   8.769  0.3527 -0.5341  0.0916
17081SOL    HW152684   5.483   5.444   8.679 -0.4697  0.5903 -0.0075
17081SOL    HW252685   5.503   5.492   8.822  0.7587 -1.1206  0.4198
17082SOL     OW52686   2.383   4.514   2.818  0.4674  0.0358  0.1310
17082SOL    HW152687   2.422   4.565   2.747  0.2789  1.6545  1.1513
17082SOL    HW252688   2.433   4.432   2.819  0.3099 -0.1381 -2.0050
17083SOL     OW52689   5.062   0.823   2.736 -0.3181 -0.2253  0.1769
17083SOL    HW152690   5.132   0.768   2.701  0.5599  0.2651  1.0908
17083SOL    HW252691   4.992   0.762   2.758 -0.7911 -0.5763 -2.0718
17084SOL     OW52692   5.797   4.818  11.014  0.0860  0.0707 -0.1792
17084SOL    HW152693   5.726   4.763  11.047 -1.0414  0.9983 -0.9632
17084SOL    HW252694   5.857   4.757  10.971 -0.5993 -0.6560 -0.1265
17085SOL     OW52695   6.703   0.784   6.731  0.2216 -0.2820 -0.3826
17085SOL    HW152696   6.617   0.760   6.697  0.2398 -0.8810 -0.0205
17085SOL    HW252697   6.718   0.873   6.699 -0.6319 -0.0876 -0.2552
17086SOL     OW52698   1.202   4.419   7.492 -0.1980 -0.6402  0.1164
17086SOL    HW152699   1.142   4.350   7.466 -1.3664  0.1372  0.6750
17086SOL    HW252700   1.198   4.483   7.421  2.2747 -1.9176 -1.3084
17087SOL     OW52701   4.935   5.771   1.102  0.3225 -0.2943  0.0550
17087SOL    HW152702   5.007   5.830   1.124  1.7337 -1.8376 -0.1821
17087SOL    HW252703   4.950   5.694   1.157 -1.6705 -0.3175  0.6346
17088SOL     OW52704   2.736   3.481   9.231  0.1470  0.2655  0.3162
17088SOL    HW152705   2.773   3.393   9.222  2.0766  1.1357 -0.7151
17088SOL    HW252706   2.643   3.470   9.209  0.7938 -1.1451 -2.0241
17089SOL     OW52707   0.861   0.939  11.535  0.2133 -0.5990 -0.0589
17089SOL    HW152708   0.821   0.955  11.450  0.7587 -0.7421 -0.3471
17089SOL    HW252709   0.799   0.882  11.581 -0.0909 -0.5030 -0.3533
17090SOL     OW52710   2.065   6.071   1.532  0.0673  0.1262 -0.0009
17090SOL    HW152711   2.031   6.138   1.471  1.5413  0.5117 -0.4415
17090SOL    HW252712   2.046   5.988   1.488  0.8452  0.3886 -0.8703
17091SOL     OW52713   2.588   4.733   3.597  0.0155 -0.4424 -0.3756
17091SOL    HW152714   2.678   4.729   3.565 -0.0747 -1.9876 -0.5422
17091SOL    HW252715   2.595   4.718   3.691 -0.1472 -2.5325 -0.6347
17092SOL     OW52716   3.978   0.753   9.029  1.2696  0.1334  0.3094
17092SOL    HW152717   4.024   0.815   8.972  0.7472  1.1476  0.9616
17092SOL    HW252718   4.029   0.673   9.023  1.3269  0.2613 -1.4570
17093SOL     OW52719   2.643   4.719  11.396 -0.9799 -0.1931 -0.2779
17093SOL    HW152720   2.598   4.660  11.457 -2.2640  0.9910 -0.0065
17093SOL    HW252721   2.736   4.708  11.416 -1.2628 -1.1748  0.6210
17094SOL     OW52722   2.016   0.348   2.261  0.6980 -0.1278 -0.2463
17094SOL    HW152723   2.038   0.438   2.286  0.0940  0.1218 -0.5877
17094SOL    HW252724   2.058   0.293   2.327  0.6684  0.4280  0.2368
17095SOL     OW52725   5.220   6.690   0.998  0.2104 -0.1763 -0.0055
17095SOL    HW152726   5.307   6.684   0.959 -0.1372 -1.3244 -0.6726
17095SOL    HW252727   5.189   6.777   0.975  0.9518  0.0184 -0.2803
17096SOL     OW52728   6.122   5.431   3.779 -0.4549  0.1052 -0.6181
17096SOL    HW152729   6.090   5.381   3.704 -2.0640  0.9128 -0.5065
17096SOL    HW252730   6.104   5.522   3.757  1.4885  0.5783 -0.3711
17097SOL     OW52731   2.635   4.018   0.703  0.4489  0.0492 -0.8599
17097SOL    HW152732   2.656   3.974   0.621  2.7121 -0.0563 -0.3037
17097SOL    HW252733   2.641   3.949   0.770 -1.5262  0.0963 -0.5815
17098SOL     OW52734   6.245   3.190  11.393  0.0492 -0.6750  0.7244
17098SOL    HW152735   6.295   3.252  11.339 -0.2998 -1.5365 -0.6279
17098SOL    HW252736   6.165   3.175  11.344  0.1632 -2.2531  0.9841
17099SOL     OW52737   6.644   5.820   5.557 -0.1934  0.8617 -0.0250
17099SOL    HW152738   6.659   5.800   5.650 -0.6580  2.0237  0.3264
17099SOL    HW252739   6.673   5.911   5.548 -2.2224  1.5135 -0.4740
17100SOL     OW52740   5.837   5.229   8.763 -0.0723 -0.6060  0.4666
17100SOL    HW152741   5.821   5.258   8.853  1.3539 -1.6235  1.0915
17100SOL    HW252742   5.826   5.134   8.766  1.0073 -0.7671 -0.1903
17101SOL     OW52743   7.159   1.536   5.212 -0.3901 -0.3734 -0.4519
17101SOL    HW152744   7.072   1.555   5.178  0.2411  1.3123 -1.2036
17101SOL    HW252745   7.161   1.577   5.298 -0.5831 -1.0766 -0.1037
17102SOL     OW52746   2.318   6.940   2.592  0.1249  0.3774 -0.3416
17102SOL    HW152747   2.343   7.023   2.632 -1.5834  1.0364 -0.5600
17102SOL    HW252748   2.255   6.902   2.652 -0.9027  0.3878 -1.3705
17103SOL     OW52749   5.014   5.384  10.131 -0.2157 -0.4216 -0.6861
17103SOL    HW152750   5.054   5.457  10.084  0.1353 -0.9156 -1.1687
17103SOL    HW252751   5.074   5.311  10.117  0.3489 -0.3849  1.2424
17104SOL     OW52752   1.803   2.785   5.225  0.0925  0.0662  0.7598
17104SOL    HW152753   1.813   2.817   5.135  0.5536 -0.6278  0.5569
17104SOL    HW252754   1.827   2.693   5.220 -0.9659 -0.2589  1.3846
17105SOL     OW52755   0.081   5.480   1.492  0.1215 -0.6280  0.4190
17105SOL    HW152756   0.044   5.540   1.427  1.6430 -0.1468 -0.0414
17105SOL    HW252757   0.065   5.522   1.576 -0.7966 -0.6714  0.2731
17106SOL     OW52758   1.160   4.129  11.742  0.3121  0.3898  0.3248
17106SOL    HW152759   1.211   4.108  11.664 -1.1838  0.3854 -0.6784
17106SOL    HW252760   1.128   4.218  11.727 -2.9891 -0.8410 -0.8302
17107SOL     OW52761   7.520   0.213   1.834 -0.1832 -0.3061 -0.4183
17107SOL    HW152762   7.512   0.308   1.825 -0.1378 -0.2156  0.3669
17107SOL    HW252763   7.571   0.201   1.914  0.4222 -0.9929 -0.8959
17108SOL     OW52764   1.430   0.177  11.928  0.3842 -0.5206 -0.0322
17108SOL    HW152765   1.499   0.161  11.864 -0.2658 -0.9218 -0.6387
17108SOL    HW252766   1.367   0.107  11.914  0.7189 -1.2290  1.7351
17109SOL     OW52767   2.825   2.226   8.156 -0.0680  0.9606  0.6336
17109SOL    HW152768   2.872   2.177   8.224  0.2092  1.5022  0.8355
17109SOL    HW252769   2.734   2.223   8.183 -0.2873 -0.7001 -0.1203
17110SOL     OW52770   1.112   6.830   0.876 -0.0975 -0.3007 -0.0191
17110SOL    HW152771   1.044   6.834   0.808 -0.5509 -0.6538  0.4114
17110SOL    HW252772   1.151   6.918   0.876 -0.1402 -0.2758 -0.6837
17111SOL     OW52773   3.525   2.125   1.288 -0.3995 -0.4146 -0.0939
17111SOL    HW152774   3.431   2.143   1.293 -0.5315 -1.0434 -0.1825
17111SOL    HW252775   3.533   2.059   1.219 -0.0804 -1.5362  0.9631
17112SOL     OW52776   0.188   7.241   8.431 -0.1481  0.0399  1.2137
17112SOL    HW152777   0.235   7.323   8.441 -2.0648  1.2804  0.6123
17112SOL    HW252778   0.127   7.238   8.504  0.4755 -1.3018  1.7184
17113SOL     OW52779   7.318   1.922   5.738 -0.3011  0.2784  0.8307
17113SOL    HW152780   7.387   1.982   5.710 -0.7025  0.2447 -0.2600
17113SOL    HW252781   7.363   1.854   5.788  0.5635 -0.1894 -0.5568
17114SOL     OW52782   0.529   7.011   8.855 -0.0689  0.1829 -0.6354
17114SOL    HW152783   0.535   7.106   8.866  1.1972  0.2573 -1.6322
17114SOL    HW252784   0.477   6.981   8.929  1.1150  1.4448  0.7742
17115SOL     OW52785   7.561   6.547   2.101 -0.4450 -1.1983  0.3482
17115SOL    HW152786   7.480   6.550   2.153 -1.2404 -2.0526 -0.7787
17115SOL    HW252787   7.530   6.539   2.011  0.7467  3.6014 -0.7545
17116SOL     OW52788   2.461   7.233  10.490  0.1551  0.1511 -0.0312
17116SOL    HW152789   2.493   7.224  10.400 -1.1805 -0.3905 -0.4829
17116SOL    HW252790   2.535   7.206  10.544  1.5182  1.9988 -0.8745
17117SOL     OW52791   0.409   5.633   2.008 -0.0692 -0.0040 -0.5783
17117SOL    HW152792   0.494   5.596   2.033 -0.1320  0.1201 -0.1799
17117SOL    HW252793   0.431   5.699   1.941  0.0867 -0.4102 -0.9351
17118SOL     OW52794   1.976   4.678   9.126 -0.3288 -0.2652  0.0027
17118SOL    HW152795   1.887   4.656   9.151 -0.9816  0.0748 -1.8500
17118SOL    HW252796   2.018   4.593   9.109 -0.3403 -0.4135  0.6787
17119SOL     OW52797   0.695   1.432  11.414  0.9861 -0.5803 -0.2358
17119SOL    HW152798   0.610   1.432  11.458  1.2808  0.9895  0.4185
17119SOL    HW252799   0.675   1.423  11.321  0.0367  0.5770 -0.1564
17120SOL     OW52800   0.763   0.250   5.837 -0.7966  0.4669  0.1172
17120SOL    HW152801   0.685   0.218   5.881 -0.9453 -1.1150 -1.1934
17120SOL    HW252802   0.811   0.171   5.810  1.3187  1.3758  0.9442
17121SOL     OW52803   2.273   1.241  11.302 -0.1850 -0.0209  0.4362
17121SOL    HW152804   2.322   1.254  11.383 -1.9398  0.3559  1.5057
17121SOL    HW252805   2.184   1.218  11.331 -0.9546  0.4677 -1.3675
17122SOL     OW52806   1.990   3.508   1.688  0.3490 -0.2865 -0.3595
17122SOL    HW152807   1.974   3.490   1.595 -0.5287 -0.6653 -0.1515
17122SOL    HW252808   1.944   3.590   1.704  1.4269  0.3574 -0.5042
17123SOL     OW52809   3.543   6.314   1.388 -0.5738  0.4105 -0.2683
17123SOL    HW152810   3.588   6.398   1.378  0.0039  0.8121  3.8397
17123SOL    HW252811   3.453   6.338   1.410 -0.5357 -0.0316  0.3992
17124SOL     OW52812   1.889   2.504   8.700 -0.0969  0.5123  0.7397
17124SOL    HW152813   1.856   2.576   8.752  1.6942 -0.1348  2.9398
17124SOL    HW252814   1.974   2.534   8.667 -0.9595  0.7209 -1.5240
17125SOL     OW52815   4.478   3.357  10.848 -0.3354 -0.5851 -0.0847
17125SOL    HW152816   4.384   3.338  10.846 -0.6343  0.8133 -0.8246
17125SOL    HW252817   4.514   3.307  10.774 -1.1000  1.4847 -1.9808
17126SOL     OW52818   3.939   1.144   0.321 -0.8039  0.0193  0.5517
17126SOL    HW152819   3.976   1.194   0.248 -2.0112 -0.3763 -0.3666
17126SOL    HW252820   3.967   1.054   0.304  1.4533  0.3196  2.2580
17127SOL     OW52821   3.945   4.010   7.552 -0.1202  0.1689  0.2063
17127SOL    HW152822   3.942   4.088   7.496 -0.8549  0.6508  0.8903
17127SOL    HW252823   3.892   4.033   7.628 -0.9315 -1.2627  0.1032
17128SOL     OW52824   6.166   3.581   7.191 -0.4535  0.3699 -0.6181
17128SOL    HW152825   6.238   3.540   7.239  0.3681  2.8189  0.4078
17128SOL    HW252826   6.199   3.589   7.101  0.0088  0.2667 -0.4622
17129SOL     OW52827   5.771   4.048   2.834 -0.0301 -0.1097  0.4398
17129SOL    HW152828   5.771   4.080   2.744 -0.2737 -0.1664  0.4186
17129SOL    HW252829   5.682   4.063   2.865 -0.3545 -1.3764  0.2009
17130SOL     OW52830   7.013   2.079  11.483  0.0919  0.2246  0.5757
17130SOL    HW152831   7.030   2.141  11.554 -0.1420  0.2677  0.5963
17130SOL    HW252832   7.071   2.107  11.413 -1.3830  1.7025 -0.1370
17131SOL     OW52833   0.565   7.124  10.895  0.1500 -0.1837 -0.4120
17131SOL    HW152834   0.523   7.067  10.960  2.4741  0.4149  1.7912
17131SOL    HW252835   0.528   7.096  10.811 -1.0382 -2.8508  0.8721
17132SOL     OW52836   7.924   0.398   5.251 -0.8311  0.0060  0.4445
17132SOL    HW152837   7.912   0.489   5.280 -0.4902  0.2614 -0.1931
17132SOL    HW252838   7.857   0.385   5.184 -0.2900  0.0826 -0.1162
17133SOL     OW52839   7.283   3.416   4.681 -0.6356 -0.5698  0.0374
17133SOL    HW152840   7.285   3.483   4.749 -2.1189  0.2879 -0.7183
17133SOL    HW252841   7.358   3.435   4.626 -0.8981  0.3307 -0.0211
17134SOL     OW52842   4.246   6.257   3.360  0.2945  0.5666 -0.2022
17134SOL    HW152843   4.323   6.201   3.357  0.6558  1.0718 -0.9203
17134SOL    HW252844   4.238   6.290   3.270 -0.5123  0.8448 -0.0332
17135SOL     OW52845   7.176   3.587   7.666 -0.2393  0.1266  0.2326
17135SOL    HW152846   7.261   3.629   7.654  0.9547 -2.4794 -1.2261
17135SOL    HW252847   7.141   3.580   7.577 -0.3513 -1.9217  0.3969
17136SOL     OW52848   6.237   2.819  11.116 -0.2318 -0.4999 -0.1169
17136SOL    HW152849   6.296   2.881  11.158 -1.8508  0.2124  1.1964
17136SOL    HW252850   6.202   2.867  11.040 -0.9114 -0.0535  0.4690
17137SOL     OW52851   7.531   2.964   9.388 -0.3035  0.2678  0.1355
17137SOL    HW152852   7.486   2.883   9.364 -0.8886  1.4090 -3.1824
17137SOL    HW252853   7.609   2.966   9.331  0.8611  1.0629  1.6830
17138SOL     OW52854   6.269   5.813   6.676 -0.1826  0.0101 -0.5991
17138SOL    HW152855   6.188   5.850   6.711 -0.2562 -1.2539  0.6190
17138SOL    HW252856   6.313   5.888   6.636 -1.4141  0.9449 -0.2855
17139SOL     OW52857   2.118   1.087   9.459 -0.1280 -0.3443 -0.5375
17139SOL    HW152858   2.094   1.098   9.551 -0.1396 -2.9039 -0.1559
17139SOL    HW252859   2.038   1.108   9.411 -0.1443  0.9434  0.0204
17140SOL     OW52860   3.323   4.153   3.429 -0.5742 -0.0285 -0.4943
17140SOL    HW152861   3.370   4.226   3.387 -1.4557  0.0466 -1.3871
17140SOL    HW252862   3.378   4.077   3.413  1.0054  0.5934  1.5441
17141SOL     OW52863   0.404   3.945   7.755 -0.2626 -0.4888 -0.0527
17141SOL    HW152864   0.457   3.955   7.834 -1.4618 -0.8605  0.8194
17141SOL    HW252865   0.334   4.010   7.764  0.4597  0.5644 -1.5796
17142SOL     OW52866   6.821   4.033   0.697  0.6426 -0.3236  0.4062
17142SOL    HW152867   6.761   4.054   0.625 -1.4027 -0.5602  1.9418
17142SOL    HW252868   6.826   3.938   0.697  1.6379 -0.2852 -0.1556
17143SOL     OW52869   5.195   6.238   0.448  0.1052  0.3854 -0.1076
17143SOL    HW152870   5.172   6.307   0.510  1.0839  0.7333 -0.1132
17143SOL    HW252871   5.291   6.237   0.447  0.1760 -2.0394  1.0703
17144SOL     OW52872   2.229   7.169   1.208 -1.3511  0.2326  0.0940
17144SOL    HW152873   2.185   7.111   1.146  0.4390 -0.4996 -0.5762
17144SOL    HW252874   2.274   7.233   1.153 -0.5929  0.2145  0.6655
17145SOL     OW52875   0.314   3.739  11.117  0.4325  0.0618  0.3452
17145SOL    HW152876   0.376   3.674  11.149  1.1008 -1.3535 -3.3336
17145SOL    HW252877   0.229   3.697  11.124  0.7097 -0.7257 -0.7564
17146SOL     OW52878   2.182   2.690   0.350  0.0201 -0.3053 -0.3481
17146SOL    HW152879   2.192   2.639   0.270  0.8386  0.4593 -0.7397
17146SOL    HW252880   2.247   2.654   0.410  0.7794  0.4299 -0.7134
17147SOL     OW52881   2.979   0.389   5.137 -0.3144 -0.2602  0.0410
17147SOL    HW152882   2.962   0.383   5.043  0.2044  2.0340 -0.2539
17147SOL    HW252883   3.061   0.438   5.144 -1.2781  1.2237  1.7053
17148SOL     OW52884   3.225   3.088   9.378 -0.9975 -0.6949  0.4444
17148SOL    HW152885   3.221   3.123   9.289 -0.9056  1.9114  1.3728
17148SOL    HW252886   3.138   3.105   9.414  0.2663  3.0407  2.3503
17149SOL     OW52887   7.885   4.881   6.326 -0.1758  0.0942 -0.0292
17149SOL    HW152888   7.962   4.921   6.287 -0.3675 -1.1379 -1.7769
17149SOL    HW252889   7.835   4.955   6.362 -0.3251  1.4604 -2.7818
17150SOL     OW52890   0.523   7.002   2.843  0.6510 -0.1191 -0.0769
17150SOL    HW152891   0.609   7.016   2.884  0.8399 -1.3896  0.0022
17150SOL    HW252892   0.535   7.031   2.752  0.0240  3.4161  0.8056
17151SOL     OW52893   3.396   4.476  11.228  0.4264  0.7129 -0.4859
17151SOL    HW152894   3.355   4.500  11.310 -0.8552 -0.7035 -0.6599
17151SOL    HW252895   3.408   4.558  11.181  0.1866  1.4195  0.6672
17152SOL     OW52896   4.949   1.983   2.418  0.3744  0.2853 -0.7019
17152SOL    HW152897   4.855   1.982   2.402  0.1741  1.1712  0.3379
17152SOL    HW252898   4.972   1.891   2.432 -0.7478  0.2656  1.2857
17153SOL     OW52899   1.738   2.350  10.739 -0.4763  0.0443 -0.1794
17153SOL    HW152900   1.772   2.274  10.691  0.8991  0.7717 -0.4009
17153SOL    HW252901   1.706   2.313  10.822  0.1591 -0.7824 -0.2840
17154SOL     OW52902   0.527   0.393   4.736  0.2582 -0.0087  0.1307
17154SOL    HW152903   0.602   0.361   4.786  1.6674  1.2562 -1.0626
17154SOL    HW252904   0.544   0.365   4.646 -0.4695  0.6777 -0.2379
17155SOL     OW52905   5.191   5.160  11.823  0.0385 -0.2838  0.2521
17155SOL    HW152906   5.120   5.149  11.761 -2.1218  1.9880  2.0661
17155SOL    HW252907   5.235   5.240  11.795 -0.7159  0.5475  1.3352
17156SOL     OW52908   3.455   4.033   0.987  0.3737  0.4923 -0.5487
17156SOL    HW152909   3.369   4.067   1.013  0.3855  2.1488 -2.4226
17156SOL    HW252910   3.437   3.981   0.908  0.7175 -1.9804  0.8882
17157SOL     OW52911   5.670   5.241   4.589  0.1120 -0.2264 -0.0707
17157SOL    HW152912   5.638   5.294   4.661  1.9855  0.6489  0.1907
17157SOL    HW252913   5.595   5.229   4.531 -0.6354  1.7554  0.4469
17158SOL     OW52914   1.490   2.505  10.607  0.2500 -0.2766  0.1519
17158SOL    HW152915   1.548   2.429  10.600 -0.7809 -1.0075 -0.8196
17158SOL    HW252916   1.512   2.559  10.531 -0.2143 -0.4779 -0.1320
17159SOL     OW52917   2.031   7.851   3.822 -0.1558 -0.0196 -0.1260
17159SOL    HW152918   2.102   7.841   3.758 -0.4487 -0.3970 -0.3996
17159SOL    HW252919   1.951   7.847   3.770 -0.4131 -0.7665  0.3012
17160SOL     OW52920   3.764   7.765   8.399  0.0642 -0.2780  0.0980
17160SOL    HW152921   3.763   7.846   8.347  0.5355  0.2077  0.8279
17160SOL    HW252922   3.855   7.752   8.423  0.2332 -1.9125 -1.3286
17161SOL     OW52923   3.098   4.318  11.504 -0.4398  0.5378 -0.1703
17161SOL    HW152924   3.116   4.336  11.412  1.2501  0.5847  0.1382
17161SOL    HW252925   3.154   4.243  11.525 -0.0728  1.1316  1.0486
17162SOL     OW52926   4.606   0.901   2.217  0.0097 -0.0971  0.0306
17162SOL    HW152927   4.518   0.918   2.184 -0.6914  0.6781  2.1310
17162SOL    HW252928   4.636   0.826   2.166 -1.3371  0.3931 -1.6048
17163SOL     OW52929   5.080   1.302  10.300 -0.3273 -0.2037  0.3962
17163SOL    HW152930   5.148   1.345  10.248  0.6043 -1.1528  0.7940
17163SOL    HW252931   5.107   1.210  10.304 -2.1430 -0.8143 -0.2425
17164SOL     OW52932   3.320   1.558   6.562 -0.1999  0.5172  0.9383
17164SOL    HW152933   3.331   1.473   6.519  1.1311  0.1333  1.9283
17164SOL    HW252934   3.286   1.616   6.495  0.5960 -0.3672 -0.2712
17165SOL     OW52935   1.082   4.249   2.288  0.3853  1.0599  0.0586
17165SOL    HW152936   1.044   4.256   2.375 -0.0513 -0.2328 -0.0062
17165SOL    HW252937   1.110   4.158   2.281 -1.7282  0.4827 -2.0082
17166SOL     OW52938   3.880   1.907  10.466  0.3628 -0.1810 -0.0841
17166SOL    HW152939   3.826   1.948  10.399 -0.1398 -1.1285 -0.2800
17166SOL    HW252940   3.830   1.915  10.547 -0.2152 -1.2757 -0.3106
17167SOL     OW52941   7.611   7.338   6.492 -0.1267 -0.0197 -0.3188
17167SOL    HW152942   7.688   7.393   6.507 -0.7730  1.7669 -2.7987
17167SOL    HW252943   7.549   7.365   6.559  0.1499  1.1720 -0.5156
17168SOL     OW52944   6.158   7.266  12.083 -0.2254 -0.2461  0.4180
17168SOL    HW152945   6.220   7.246  12.013  0.2500 -0.7635  0.9743
17168SOL    HW252946   6.113   7.183  12.098  0.1810 -0.3282  1.2093
17169SOL     OW52947   4.286   1.582   1.810 -0.5076  0.2790  0.1677
17169SOL    HW152948   4.379   1.597   1.793 -0.5615 -0.0936 -0.5204
17169SOL    HW252949   4.277   1.486   1.805 -0.5184  0.0926  2.4755
17170SOL     OW52950   5.810   0.362   3.069  0.3756  0.0937 -0.3200
17170SOL    HW152951   5.853   0.286   3.030  1.6517  0.6906 -0.1306
17170SOL    HW252952   5.724   0.365   3.026  1.1298 -0.1881 -1.9413
17171SOL     OW52953   2.054   6.132   7.884  0.2869  0.0555 -0.3893
17171SOL    HW152954   2.066   6.059   7.824 -1.6326 -2.1043  1.6682
17171SOL    HW252955   1.969   6.170   7.860 -0.2001 -0.4263  0.5299
17172SOL     OW52956   0.612   1.730   9.076 -0.2156  0.3492 -0.1034
17172SOL    HW152957   0.562   1.812   9.073  0.8781  0.9946 -1.7985
17172SOL    HW252958   0.660   1.728   8.994  2.5365 -0.2756  1.4171
17173SOL     OW52959   6.996   1.474   9.704  0.2736  0.3534 -0.8300
17173SOL    HW152960   6.946   1.540   9.655  0.5027  1.6633  0.6098
17173SOL    HW252961   7.084   1.511   9.711 -0.0541  0.8916  1.6138
17174SOL     OW52962   3.989   3.348   1.155 -0.0693 -0.2363  0.0115
17174SOL    HW152963   4.072   3.357   1.202  0.4750  4.0243 -1.2701
17174SOL    HW252964   4.013   3.352   1.063 -1.5819 -0.2887 -0.4042
17175SOL     OW52965   7.324   3.057  11.091 -0.1224  0.2973 -0.3598
17175SOL    HW152966   7.337   2.963  11.103  1.6165  0.6641  1.0930
17175SOL    HW252967   7.278   3.065  11.008  0.2289 -1.8108 -0.8050
17176SOL     OW52968   1.671   5.963   6.626 -0.5035  0.2169 -0.2052
17176SOL    HW152969   1.763   5.938   6.621 -0.7866 -0.9684  0.2105
17176SOL    HW252970   1.653   6.002   6.541  0.8998  2.3995  0.4209
17177SOL     OW52971   0.072   6.949   2.668  0.4644 -0.5711  0.3620
17177SOL    HW152972   0.155   6.907   2.688  0.9360  0.0429 -0.2765
17177SOL    HW252973   0.041   6.982   2.753  1.1510 -0.2976  0.5143
17178SOL     OW52974   1.899   0.807   6.084  0.3298 -0.8179  0.3974
17178SOL    HW152975   1.953   0.854   6.148 -1.7213  0.2022  1.4704
17178SOL    HW252976   1.852   0.876   6.036  0.4916 -1.6410 -1.0113
17179SOL     OW52977   2.547   2.162   1.216  0.4572  0.2741 -0.3297
17179SOL    HW152978   2.495   2.106   1.158  1.5950 -0.1217 -0.9897
17179SOL    HW252979   2.491   2.238   1.232 -0.5538 -0.4001 -0.5586
17180SOL     OW52980   0.129   7.811   0.317 -0.2299  0.3773 -0.5087
17180SOL    HW152981   0.115   7.732   0.264 -0.5980  0.3414 -0.3676
17180SOL    HW252982   0.184   7.867   0.263  1.5876 -0.7276  0.1344
17181SOL     OW52983   5.941   5.645   2.483  0.0314 -0.1322 -0.0991
17181SOL    HW152984   6.036   5.643   2.496  0.2663 -0.2382 -1.7096
17181SOL    HW252985   5.927   5.708   2.412 -1.0705 -0.4101 -0.1441
17182SOL     OW52986   7.202   1.624   9.394  0.1191 -0.0403  0.0874
17182SOL    HW152987   7.257   1.563   9.344  0.8357  1.2377 -0.7532
17182SOL    HW252988   7.222   1.606   9.485 -0.9355 -2.1768 -0.0522
17183SOL     OW52989   1.523   3.440  11.176  0.0664 -0.3566  0.9879
17183SOL    HW152990   1.522   3.458  11.270  1.8259 -0.2675  1.0205
17183SOL    HW252991   1.534   3.526  11.136  0.9349 -0.5520  0.7900
17184SOL     OW52992   6.460   5.040   2.108  0.5002  0.0738 -0.0095
17184SOL    HW152993   6.525   5.009   2.171  0.1186 -1.2395 -0.2232
17184SOL    HW252994   6.399   5.092   2.160  2.2295  2.2265  0.0237
17185SOL     OW52995   3.901   3.652   0.094 -0.5177 -0.2315 -0.2756
17185SOL    HW152996   3.870   3.709   0.023  1.2887  0.2932 -0.7110
17185SOL    HW252997   3.971   3.601   0.054  1.7003  1.2535  1.4549
17186SOL     OW52998   2.856   4.498   1.193 -0.1263 -0.6992 -0.0223
17186SOL    HW152999   2.922   4.560   1.161  0.0222 -1.6454 -1.6410
17186SOL    HW253000   2.776   4.549   1.199 -0.6034 -0.7698 -3.6546
17187SOL     OW53001   7.616   5.758   6.798  0.8531  0.2369 -0.0295
17187SOL    HW153002   7.594   5.667   6.780  2.8759 -0.4596  0.7543
17187SOL    HW253003   7.532   5.804   6.796 -0.2310 -1.6652 -0.2751
17188SOL     OW53004   6.003   6.930   1.663  0.3610 -0.3713  0.5386
17188SOL    HW153005   6.087   6.955   1.701  0.8449 -0.2899 -0.5594
17188SOL    HW253006   5.957   7.013   1.650  0.3905 -0.3610  0.4999
17189SOL     OW53007   7.290   4.121   6.821 -0.0991  0.0339  0.7165
17189SOL    HW153008   7.278   4.214   6.804  2.3147  0.2360 -0.2282
17189SOL    HW253009   7.202   4.084   6.814 -0.9304  2.0271 -0.1877
17190SOL     OW53010   1.536   7.841   3.774  0.1300 -0.0530 -1.2927
17190SOL    HW153011   1.548   7.886   3.857  0.0989 -1.6121 -0.4137
17190SOL    HW253012   1.493   7.906   3.717  2.6103  1.9610 -1.0162
17191SOL     OW53013   3.713   6.167   6.705 -0.7445 -0.0281 -0.1168
17191SOL    HW153014   3.663   6.195   6.628 -0.7541 -0.6692 -0.3484
17191SOL    HW253015   3.767   6.095   6.673 -0.9491 -0.4805  0.5369
17192SOL     OW53016   5.555   3.199   9.157  0.0229  0.1893 -1.0287
17192SOL    HW153017   5.578   3.174   9.067  1.5373 -1.3387 -0.2804
17192SOL    HW253018   5.463   3.175   9.166  0.5414 -2.1177 -1.4057
17193SOL     OW53019   1.198   4.220  10.580 -0.7573 -0.1511 -0.6649
17193SOL    HW153020   1.193   4.299  10.527  2.1497  0.1392 -0.7062
17193SOL    HW253021   1.181   4.148  10.518  0.1444  0.3082 -1.4844
17194SOL     OW53022   6.433   6.038   8.933 -0.2985  0.1766  0.1931
17194SOL    HW153023   6.369   5.973   8.903 -0.2196  0.8490 -1.5727
17194SOL    HW253024   6.386   6.121   8.927 -0.1385  0.3899  1.6437
17195SOL     OW53025   6.512   3.943   6.492 -0.0601 -0.4318 -0.3491
17195SOL    HW153026   6.518   4.031   6.454 -1.7271  0.0780  0.4750
17195SOL    HW253027   6.538   3.955   6.583  0.9173 -1.0499 -0.5365
17196SOL     OW53028   3.712   7.778   1.687 -0.0438 -0.3588  0.1998
17196SOL    HW153029   3.616   7.784   1.689 -0.1092  0.2080 -1.9066
17196SOL    HW253030   3.733   7.702   1.741 -1.7929 -1.3936 -0.5057
17197SOL     OW53031   0.651   1.821   7.175  0.1767 -0.0986  0.2623
17197SOL    HW153032   0.591   1.751   7.199  0.0721  0.8147  2.9583
17197SOL    HW253033   0.602   1.901   7.192  1.1047  0.6543 -0.5031
17198SOL     OW53034   1.945   4.802   6.736 -0.6837 -0.5820  0.3077
17198SOL    HW153035   1.942   4.898   6.735  0.0709 -0.5286  1.3018
17198SOL    HW253036   1.965   4.780   6.827  2.0884 -1.5539 -0.4379
17199SOL     OW53037   2.023   3.597  12.114  0.7573 -0.1913  0.3473
17199SOL    HW153038   2.110   3.558  12.126  0.4476 -0.9846  0.1363
17199SOL    HW253039   1.993   3.561  12.030 -0.4604 -1.2768  1.2220
17200SOL     OW53040   7.925   0.892   8.397 -0.0258  0.1479  0.2852
17200SOL    HW153041   7.870   0.912   8.321  1.2573  0.7801 -0.5075
17200SOL    HW253042   7.918   0.797   8.407 -2.0918  0.3013  0.8849
17201SOL     OW53043   5.077   3.048   6.672  0.4518 -0.5960 -0.5767
17201SOL    HW153044   5.018   3.101   6.619  1.4931 -0.0827 -1.2487
17201SOL    HW253045   5.079   3.092   6.757 -1.3724 -1.5308  0.0281
17202SOL     OW53046   7.130   4.778  10.363 -0.5802 -0.1652  0.3280
17202SOL    HW153047   7.113   4.709  10.427 -0.4334  0.3913  0.9875
17202SOL    HW253048   7.049   4.828  10.360 -1.0278 -0.9384 -0.8880
17203SOL     OW53049   4.287   7.860   4.262  0.1721  0.3953  0.6205
17203SOL    HW153050   4.364   7.915   4.246 -0.2331  0.7983  0.0251
17203SOL    HW253051   4.220   7.920   4.295 -0.5410  0.4310 -0.8305
17204SOL     OW53052   6.719   7.549   4.724 -0.2285 -0.0314  0.5719
17204SOL    HW153053   6.717   7.469   4.776 -1.2362  0.5983  1.5532
17204SOL    HW253054   6.630   7.584   4.730 -0.2356  0.3318 -1.1745
17205SOL     OW53055   6.093   4.383   8.144 -0.2409 -0.2515 -0.2585
17205SOL    HW153056   6.167   4.367   8.086 -0.3808  0.7133 -0.7270
17205SOL    HW253057   6.114   4.335   8.224  2.7056  2.8842  1.0846
17206SOL     OW53058   5.168   2.205  11.885 -0.2075  0.0816  0.0744
17206SOL    HW153059   5.233   2.201  11.955 -0.0142  4.0437  0.3705
17206SOL    HW253060   5.204   2.151  11.815  1.4711 -0.9261  1.6367
17207SOL     OW53061   2.549   0.981  10.895  0.0828 -0.4798 -0.5758
17207SOL    HW153062   2.509   0.993  10.981  1.7293  0.1203  0.1461
17207SOL    HW253063   2.643   0.977  10.913  0.3940 -1.6220 -2.2187
17208SOL     OW53064   4.558   6.878   3.408 -0.3249 -0.1869 -0.2682
17208SOL    HW153065   4.648   6.854   3.431 -0.8305 -1.5201  0.4662
17208SOL    HW253066   4.504   6.813   3.454 -1.8996  2.6767  2.3648
17209SOL     OW53067   6.246   7.134   0.812  0.1380  0.0293  0.2344
17209SOL    HW153068   6.297   7.056   0.789  0.7864  0.1021  1.3344
17209SOL    HW253069   6.274   7.155   0.901 -0.4368  1.1969  0.1563
17210SOL     OW53070   6.934   5.993   4.609  0.3002 -0.4281  0.0621
17210SOL    HW153071   7.020   6.001   4.568  0.0962 -0.9830 -0.4915
17210SOL    HW253072   6.952   5.967   4.699  0.8516  2.8516  1.0023
17211SOL     OW53073   7.708   1.229   0.940 -0.3603  0.3344 -0.1506
17211SOL    HW153074   7.614   1.244   0.954 -0.1489  0.9155  0.7692
17211SOL    HW253075   7.715   1.200   0.849 -1.3170  1.4225 -0.5999
17212SOL     OW53076   7.128   7.208  11.794 -0.2417  0.8405  0.3892
17212SOL    HW153077   7.048   7.159  11.777 -0.2983  1.2248 -0.5063
17212SOL    HW253078   7.142   7.200  11.888 -0.5534 -0.4205  0.3452
17213SOL     OW53079   4.305   0.305   5.370 -0.2679 -0.1011  0.6267
17213SOL    HW153080   4.369   0.328   5.303  0.2635  0.4317  1.3062
17213SOL    HW253081   4.256   0.386   5.387 -1.5290 -0.6323 -0.2936
17214SOL     OW53082   7.335   2.569   1.577 -0.0874  0.2613  0.1783
17214SOL    HW153083   7.367   2.655   1.552 -0.1901  0.4530  0.6841
17214SOL    HW253084   7.413   2.522   1.606  0.2946 -0.5159 -1.9698
17215SOL     OW53085   5.248   2.921  12.031  0.3510  0.2628 -0.2412
17215SOL    HW153086   5.169   2.884  12.071 -0.6820  1.4981 -1.0311
17215SOL    HW253087   5.316   2.913  12.097 -1.0335  1.3050  1.3827
17216SOL     OW53088   0.840   0.230   4.316 -0.2960  0.1815 -0.2114
17216SOL    HW153089   0.761   0.207   4.268 -0.6198 -1.6379  1.1278
17216SOL    HW253090   0.891   0.149   4.321  0.7085  0.8281  0.7074
17217SOL     OW53091   6.815   0.269   2.212 -0.3621 -0.6465  0.1625
17217SOL    HW153092   6.830   0.360   2.185  0.7824 -0.6809  0.6132
17217SOL    HW253093   6.823   0.219   2.131  0.5457 -0.4885  0.1388
17218SOL     OW53094   5.771   1.109   6.406  0.1624  0.0685 -0.4719
17218SOL    HW153095   5.768   1.111   6.501  0.9119 -0.1990 -0.4305
17218SOL    HW253096   5.767   1.201   6.379 -1.0940  0.0953 -0.2391
17219SOL     OW53097   7.706   0.165   7.068  0.0001  0.4872 -0.4115
17219SOL    HW153098   7.737   0.087   7.115 -1.2230  0.7771  0.9250
17219SOL    HW253099   7.614   0.148   7.051  0.1402  0.9048 -1.7051
17220SOL     OW53100   3.925   2.927   0.270 -0.8882 -0.3763  0.3440
17220SOL    HW153101   4.001   2.892   0.224 -1.1149  1.8793 -1.9393
17220SOL    HW253102   3.963   2.982   0.339 -0.4575  0.3134 -0.4366
17221SOL     OW53103   2.393   5.530   2.171  0.0846  0.4169  0.4943
17221SOL    HW153104   2.325   5.598   2.173  1.5192  1.9726  3.2047
17221SOL    HW253105   2.365   5.466   2.236  1.4561  1.4634  2.2109
17222SOL     OW53106   6.641   0.367  11.383 -0.1889 -0.0547  0.2270
17222SOL    HW153107   6.620   0.291  11.437  1.1398  0.7015  1.8833
17222SOL    HW253108   6.692   0.424  11.440  0.5682  1.1754 -1.5860
17223SOL     OW53109   4.915   2.001   8.124 -0.5898  0.2638  0.6247
17223SOL    HW153110   4.992   1.944   8.117 -1.2304 -0.5429 -0.0844
17223SOL    HW253111   4.863   1.962   8.195 -1.4830 -0.6379 -0.4769
17224SOL     OW53112   4.399   5.022  11.035  0.0608 -0.1001 -0.2343
17224SOL    HW153113   4.419   4.994  11.124  1.2935  1.3739 -0.0040
17224SOL    HW253114   4.395   5.117  11.041 -1.6147 -0.0641 -1.4304
17225SOL     OW53115   3.747   7.447   9.218  0.4550 -0.2748  0.0959
17225SOL    HW153116   3.753   7.508   9.291  0.5078 -1.1167  0.8164
17225SOL    HW253117   3.693   7.492   9.153  2.4783  1.5575 -0.4663
17226SOL     OW53118   2.732   0.099  11.875  0.2694 -0.2794 -0.5623
17226SOL    HW153119   2.823   0.126  11.866  0.7199 -0.3951  2.4898
17226SOL    HW253120   2.683   0.180  11.884  0.9506 -0.0769  3.4068
17227SOL     OW53121   7.656   2.674   7.592 -0.0920  0.0134 -0.0744
17227SOL    HW153122   7.649   2.609   7.523 -0.6878 -2.0562  1.8192
17227SOL    HW253123   7.576   2.726   7.584  0.4785  0.7188 -1.7166
17228SOL     OW53124   2.161   7.619   1.431 -0.8244 -0.3957  0.9164
17228SOL    HW153125   2.103   7.657   1.497 -0.8248 -0.3799  0.9072
17228SOL    HW253126   2.114   7.631   1.349 -0.2866  0.7073  0.7420
17229SOL     OW53127   7.560   5.101   2.105  0.2091  0.3691  0.1496
17229SOL    HW153128   7.538   5.176   2.049 -1.2555 -0.7691 -0.9029
17229SOL    HW253129   7.570   5.028   2.044  2.1320 -0.2100  1.1040
17230SOL     OW53130   6.117   1.579   8.664  0.0125  0.3755 -0.2550
17230SOL    HW153131   6.159   1.648   8.715  0.9036  1.0493 -1.8423
17230SOL    HW253132   6.128   1.606   8.573 -1.1780 -0.9901 -0.8439
17231SOL     OW53133   2.571   4.678   0.665  0.0282 -0.1201 -0.1094
17231SOL    HW153134   2.501   4.740   0.684  0.0847  0.8017 -2.5814
17231SOL    HW253135   2.530   4.611   0.610  1.2291  1.1371 -2.7364
17232SOL     OW53136   4.416   6.605   0.114 -0.3820  0.5318 -0.0886
17232SOL    HW153137   4.476   6.643   0.050  1.3280 -0.4873  0.8110
17232SOL    HW253138   4.358   6.677   0.139  0.0136  1.3839 -1.5025
17233SOL     OW53139   2.133   0.206   4.935 -0.5118 -0.3658 -0.4760
17233SOL    HW153140   2.228   0.194   4.946 -0.5260 -0.6144 -0.6237
17233SOL    HW253141   2.125   0.254   4.853 -0.5478 -1.0052 -0.8571
17234SOL     OW53142   0.774   1.621   3.794  0.3100 -0.2270 -0.0577
17234SOL    HW153143   0.750   1.535   3.759  0.7698  0.2455 -1.6178
17234SOL    HW253144   0.866   1.631   3.771  0.9139 -0.2288  2.0967
17235SOL     OW53145   4.729   3.794   0.448  0.4208 -0.9311  0.1975
17235SOL    HW153146   4.635   3.797   0.431  0.7284 -0.6876 -1.6631
17235SOL    HW253147   4.751   3.701   0.448  0.0450 -1.0526  1.6993
17236SOL     OW53148   7.285   2.032   8.309 -0.2305 -0.3793 -0.3344
17236SOL    HW153149   7.288   1.938   8.326 -2.5429 -0.0609  2.8117
17236SOL    HW253150   7.200   2.046   8.269 -1.7156  0.6317  2.8202
17237SOL     OW53151   4.598   6.331   7.517  0.0426  0.4010  0.7021
17237SOL    HW153152   4.592   6.278   7.438  0.0679  1.5534 -0.0857
17237SOL    HW253153   4.602   6.266   7.588  1.5229 -0.6842 -0.3023
17238SOL     OW53154   4.611   7.360  12.233  0.3949 -0.3427  0.3525
17238SOL    HW153155   4.526   7.400  12.248 -0.4407 -1.7991 -0.2181
17238SOL    HW253156   4.660   7.375  12.313  0.2032  1.9001  0.0999
17239SOL     OW53157   2.208   7.240   0.220 -0.0316 -0.2182  0.0820
17239SOL    HW153158   2.155   7.235   0.300 -0.4074  0.5813 -0.1131
17239SOL    HW253159   2.297   7.256   0.251 -0.2348  0.4578  0.3360
17240SOL     OW53160   2.282   7.614   7.947  0.1044  0.7799 -0.0645
17240SOL    HW153161   2.286   7.524   7.913 -1.6007  0.1473  1.1968
17240SOL    HW253162   2.189   7.637   7.941  0.0622  1.4055  2.0935
17241SOL     OW53163   7.221   0.814  10.452  0.0199  0.1874  0.1179
17241SOL    HW153164   7.149   0.763  10.415 -0.3088  0.7985 -0.1027
17241SOL    HW253165   7.180   0.866  10.521  0.5042 -0.4447  0.8985
17242SOL     OW53166   0.560   1.505   4.378  0.2566  0.2608 -0.0175
17242SOL    HW153167   0.549   1.482   4.286  0.2629  0.0227  0.0406
17242SOL    HW253168   0.500   1.447   4.425 -0.3044  0.8966  0.0702
17243SOL     OW53169   4.251   1.009   9.519 -0.6732 -0.1740 -0.7733
17243SOL    HW153170   4.261   1.038   9.610  2.3213 -0.7068 -0.8317
17243SOL    HW253171   4.207   0.925   9.525  1.4199 -1.2595  0.4513
17244SOL     OW53172   2.245   6.411   6.976  0.4233  0.7406 -0.7501
17244SOL    HW153173   2.243   6.343   7.044  1.0786  1.4097 -0.0308
17244SOL    HW253174   2.193   6.482   7.012  0.9552  1.1871 -0.8512
17245SOL     OW53175   7.060   4.480  12.271 -0.4342 -0.2744 -0.8341
17245SOL    HW153176   7.056   4.539  12.196  2.0452 -1.1951 -1.8210
17245SOL    HW253177   7.123   4.521  12.331  0.4367 -1.2935 -1.0093
17246SOL     OW53178   2.487   3.302   7.209 -0.2052 -0.1100  0.3323
17246SOL    HW153179   2.402   3.333   7.176 -1.1038 -1.0828  1.5953
17246SOL    HW253180   2.507   3.226   7.154 -0.6851 -0.4913  0.6630
17247SOL     OW53181   3.225   3.298  10.142 -0.1572 -0.4609 -0.2015
17247SOL    HW153182   3.158   3.229  10.135 -0.8648  0.0775  0.9404
17247SOL    HW253183   3.277   3.289  10.062  0.2019 -2.7734  0.2080
17248SOL     OW53184   7.834   7.188  11.965 -0.7479 -0.3936  0.0193
17248SOL    HW153185   7.802   7.099  11.951 -3.6793  0.4966  0.4052
17248SOL    HW253186   7.762   7.232  12.010  0.4902  2.2839 -0.4682
17249SOL     OW53187   7.032   5.899   5.627  0.0127  0.3329 -0.3384
17249SOL    HW153188   6.959   5.878   5.686  0.2752 -0.5689 -0.3104
17249SOL    HW253189   6.993   5.896   5.539  0.1532 -0.9165 -0.3819
17250SOL     OW53190   2.534   6.943   3.303 -0.1064 -0.3517 -0.2454
17250SOL    HW153191   2.442   6.918   3.296 -0.2025 -0.0423 -0.0768
17250SOL    HW253192   2.581   6.859   3.310 -0.2781 -0.5579 -1.3137
17251SOL     OW53193   0.325   1.863   7.563  0.0711  0.2991  0.6983
17251SOL    HW153194   0.297   1.903   7.646 -0.2570 -0.1490  0.8077
17251SOL    HW253195   0.401   1.810   7.586 -0.0949  0.0767  0.7368
17252SOL     OW53196   3.831   5.298  10.860 -0.0492  0.0701  0.4415
17252SOL    HW153197   3.871   5.364  10.918  0.9656 -2.2042  2.5091
17252SOL    HW253198   3.737   5.315  10.867  0.1584  0.9481  1.3913
17253SOL     OW53199   0.581   5.455   2.578  0.1499  0.3099 -0.2226
17253SOL    HW153200   0.509   5.401   2.543 -0.9300  0.3036  1.8508
17253SOL    HW253201   0.537   5.533   2.613  1.4014  1.2592 -0.7261
17254SOL     OW53202   3.305   2.872   2.676  0.2547  0.1519  0.4075
17254SOL    HW153203   3.343   2.905   2.595  0.3285  0.9358  0.7525
17254SOL    HW253204   3.235   2.933   2.698 -0.3736 -0.5644  0.4627
17255SOL     OW53205   1.227   7.336   6.047 -0.8816  0.4427  0.6733
17255SOL    HW153206   1.167   7.262   6.052  0.4507 -0.6159  1.7301
17255SOL    HW253207   1.221   7.378   6.133  1.2562 -0.8390  1.5181
17256SOL     OW53208   6.116   2.326   2.352 -0.4080 -1.1078  0.3458
17256SOL    HW153209   6.127   2.388   2.424  1.1713  0.0111 -0.7877
17256SOL    HW253210   6.022   2.308   2.350 -0.8410  0.8364  1.0638
17257SOL     OW53211   7.312   6.427   2.180  0.4467 -0.4056 -0.2240
17257SOL    HW153212   7.287   6.342   2.216 -0.6154  0.4143  1.0466
17257SOL    HW253213   7.264   6.432   2.097  0.3168 -0.9491 -0.1848
17258SOL     OW53214   1.728   3.232   7.985 -0.2028 -0.0108  0.0568
17258SOL    HW153215   1.778   3.153   7.969  0.4578  0.0408  1.6914
17258SOL    HW253216   1.789   3.292   8.027 -1.1341  0.7264  0.4173
17259SOL     OW53217   6.738   2.995  10.873  0.3088  0.1990 -0.3369
17259SOL    HW153218   6.667   2.932  10.889 -0.8343  1.8625  1.5893
17259SOL    HW253219   6.712   3.038  10.792  0.2665 -0.6796 -0.8081
17260SOL     OW53220   5.171   4.107  10.047 -0.1462  0.1838 -0.3974
17260SOL    HW153221   5.266   4.113  10.051 -0.0029 -1.7400  0.2285
17260SOL    HW253222   5.142   4.123  10.136  0.0205 -3.6907  0.5341
17261SOL     OW53223   1.039   0.875   9.979  0.5965 -0.1989 -0.2626
17261SOL    HW153224   0.979   0.872  10.054 -0.6218  1.5188 -1.0893
17261SOL    HW253225   1.000   0.940   9.920  2.1205 -0.6662 -1.8750
17262SOL     OW53226   5.835   0.915  12.132  0.1193 -0.1187 -0.3623
17262SOL    HW153227   5.874   0.943  12.215 -0.4760 -0.4588  0.0460
17262SOL    HW253228   5.842   0.819  12.134 -0.1717 -0.1446 -0.5645
17263SOL     OW53229   3.874   3.054   3.548 -0.6154 -0.3904  0.7076
17263SOL    HW153230   3.916   3.140   3.549  1.3870 -1.3324  0.7492
17263SOL    HW253231   3.817   3.056   3.471 -0.4297  0.8784  0.5868
17264SOL     OW53232   4.868   5.391  10.904  0.0395  0.3834 -0.5033
17264SOL    HW153233   4.824   5.439  10.834  0.4972  2.1235  0.3473
17264SOL    HW253234   4.828   5.304  10.902 -1.4423  1.0479 -1.5397
17265SOL     OW53235   0.425   6.782   2.439  0.4396  0.6277 -0.3244
17265SOL    HW153236   0.381   6.766   2.523 -0.7603  0.2745 -1.0052
17265SOL    HW253237   0.442   6.694   2.404 -1.4343  0.7298 -1.6363
17266SOL     OW53238   4.237   0.027  10.277  0.5324  0.0383 -0.6546
17266SOL    HW153239   4.288   0.028  10.358 -1.2733  0.8815  0.5221
17266SOL    HW253240   4.174  -0.044  10.289 -0.4251  0.8286 -0.8529
17267SOL     OW53241   0.030   2.149   2.653  0.2192 -0.3053  0.0549
17267SOL    HW153242   0.037   2.059   2.687 -0.6770  0.0247  1.1582
17267SOL    HW253243   0.016   2.138   2.559 -1.2936 -1.3817  0.3688
17268SOL     OW53244   2.221   1.207   5.948 -0.1795  0.3296  0.1468
17268SOL    HW153245   2.237   1.193   5.855  0.4898  0.7215  0.1909
17268SOL    HW253246   2.276   1.141   5.992 -0.5849  0.0668  0.2621
17269SOL     OW53247   4.349   1.473   0.248  0.8989 -0.4382  0.0750
17269SOL    HW153248   4.270   1.451   0.297  0.1525  1.4802 -0.1540
17269SOL    HW253249   4.317   1.503   0.163  1.7984  0.9805  0.1995
17270SOL     OW53250   0.133   6.480   4.245 -0.0408  0.0643  0.3388
17270SOL    HW153251   0.203   6.425   4.282 -1.8830 -0.9797  2.5436
17270SOL    HW253252   0.179   6.552   4.203  2.5546 -3.0566 -2.8243
17271SOL     OW53253   6.821   5.345   0.217  0.1355 -0.0408 -0.4857
17271SOL    HW153254   6.781   5.416   0.166  1.3179  2.0592  1.3667
17271SOL    HW253255   6.897   5.317   0.164 -0.2298  0.1744 -1.1346
17272SOL     OW53256   5.796   3.828  10.676 -0.3246 -0.6827  0.1827
17272SOL    HW153257   5.883   3.799  10.648  0.2594 -0.9399  2.1050
17272SOL    HW253258   5.811   3.868  10.761 -1.8566  0.9327 -0.2530
17273SOL     OW53259   1.351   4.561   2.539 -0.8551  0.3932 -0.2520
17273SOL    HW153260   1.443   4.540   2.523 -0.6076  1.8328 -0.8829
17273SOL    HW253261   1.306   4.530   2.460 -0.8029  0.3509 -0.2654
17274SOL     OW53262   4.856   1.351   0.012 -0.0516 -0.2437 -0.1341
17274SOL    HW153263   4.896   1.303  -0.060 -0.0673  0.0190 -0.3209
17274SOL    HW253264   4.921   1.416   0.037  0.4418 -1.0997  0.8875
17275SOL     OW53265   6.108   7.699   6.363 -0.3048  0.1158  0.1093
17275SOL    HW153266   6.056   7.633   6.316 -1.1041  0.9322 -0.1787
17275SOL    HW253267   6.173   7.648   6.411  0.3021 -0.7818 -1.5813
17276SOL     OW53268   5.761   3.222   5.298 -0.4030  0.3819 -0.4718
17276SOL    HW153269   5.696   3.155   5.320 -1.2615  0.9868 -1.1357
17276SOL    HW253270   5.711   3.294   5.262  0.6706  0.6656 -1.4763
17277SOL     OW53271   2.069   5.881   0.515 -0.0781  0.5598 -0.0127
17277SOL    HW153272   2.119   5.829   0.579 -1.0908  1.5691  1.6526
17277SOL    HW253273   2.102   5.970   0.526 -1.2670  0.9890  0.1065
17278SOL     OW53274   5.533   2.278   4.125  0.1773  0.1477 -0.8035
17278SOL    HW153275   5.598   2.210   4.137 -1.2719 -1.3915 -1.2662
17278SOL    HW253276   5.508   2.304   4.214  2.4674  1.9246 -0.5672
17279SOL     OW53277   0.243   2.328   8.927 -0.1395  0.1940 -0.1518
17279SOL    HW153278   0.213   2.367   8.844  0.0789  1.4063  0.3218
17279SOL    HW253279   0.334   2.304   8.910 -0.0507  0.5721 -0.2242
17280SOL     OW53280   4.591   1.155   3.769 -0.0826 -0.1090 -0.6727
17280SOL    HW153281   4.567   1.070   3.805 -0.3868  0.4319  0.4704
17280SOL    HW253282   4.650   1.192   3.834  0.0854  0.5355 -1.1804
17281SOL     OW53283   1.634   4.542   4.253  0.1103 -0.2437 -0.2842
17281SOL    HW153284   1.579   4.611   4.215 -0.6643 -0.0448  1.1495
17281SOL    HW253285   1.687   4.586   4.319  2.5230 -0.3083 -2.0137
17282SOL     OW53286   6.450   5.825   5.295  0.2979 -0.2365 -0.5312
17282SOL    HW153287   6.486   5.803   5.209 -0.9192  1.7880 -1.6419
17282SOL    HW253288   6.476   5.916   5.309 -0.0582 -0.3390  0.9749
17283SOL     OW53289   4.234   2.220   2.262 -1.1509 -0.1498  0.2179
17283SOL    HW153290   4.325   2.250   2.257 -0.5975 -1.7912  0.0406
17283SOL    HW253291   4.198   2.236   2.174 -0.5926 -0.8544 -0.1405
17284SOL     OW53292   6.606   6.539   9.394  0.1111  0.6101 -0.1773
17284SOL    HW153293   6.698   6.540   9.417  1.0031  0.7950 -3.2723
17284SOL    HW253294   6.577   6.449   9.409  0.8650  0.4817  0.5204
17285SOL     OW53295   4.193   3.422   8.359 -0.2347  0.7519  0.4125
17285SOL    HW153296   4.154   3.338   8.335  0.4273  0.7568 -0.7565
17285SOL    HW253297   4.179   3.477   8.281  3.2640  0.3534 -0.6368
17286SOL     OW53298   3.223   6.950   9.272 -0.5670 -0.9505  0.0927
17286SOL    HW153299   3.286   7.019   9.293  1.0850 -2.0196 -1.1216
17286SOL    HW253300   3.218   6.899   9.353 -0.8770 -0.1298  0.6120
17287SOL     OW53301   4.324   6.043   2.479 -0.3626  0.0756 -0.3066
17287SOL    HW153302   4.344   5.951   2.466 -0.7360  0.0419 -0.6628
17287SOL    HW253303   4.398   6.077   2.529 -1.1026 -0.8497  1.5450
17288SOL     OW53304   4.512   1.304  11.664 -0.1543  0.1672  0.1127
17288SOL    HW153305   4.592   1.308  11.717 -0.3817 -0.9072  0.5682
17288SOL    HW253306   4.460   1.379  11.693  0.2850  0.3309  0.4901
17289SOL     OW53307   0.839   5.554   1.825 -0.2028 -0.1441  0.3739
17289SOL    HW153308   0.763   5.554   1.884 -0.2255 -1.0092  0.3557
17289SOL    HW253309   0.869   5.645   1.826 -1.2977  0.2394  0.2985
17290SOL     OW53310   2.324   5.664   7.875  0.4026  0.2597 -0.0908
17290SOL    HW153311   2.306   5.716   7.797  0.2198  0.3644  0.0214
17290SOL    HW253312   2.295   5.718   7.948  1.8665  0.7587  0.1616
17291SOL     OW53313   2.083   3.719  10.335  0.5437  0.1532  0.2271
17291SOL    HW153314   2.149   3.755  10.393  0.1285  1.0245  0.1814
17291SOL    HW253315   2.001   3.730  10.383  0.2130  0.7721 -0.4575
17292SOL     OW53316   2.860   1.185   9.170  1.1491  0.8103  0.4282
17292SOL    HW153317   2.951   1.156   9.163  0.9080  0.2994 -0.8460
17292SOL    HW253318   2.865   1.271   9.210  2.2634  1.1522 -0.3995
17293SOL     OW53319   1.775   5.596  10.680  0.4075 -0.3559  0.1446
17293SOL    HW153320   1.775   5.642  10.597  0.7131 -2.7400 -1.2815
17293SOL    HW253321   1.785   5.664  10.746 -0.5455  1.6706 -1.7073
17294SOL     OW53322   5.712   1.311  11.828 -0.2389  0.2310 -0.4667
17294SOL    HW153323   5.764   1.328  11.907 -1.5663  0.6621  0.3400
17294SOL    HW253324   5.674   1.224  11.843 -0.1536  0.1323 -0.8219
17295SOL     OW53325   5.076   4.353   7.349 -0.4357 -0.2227 -0.1045
17295SOL    HW153326   5.008   4.410   7.384 -1.9559 -2.1678  0.2579
17295SOL    HW253327   5.029   4.290   7.294  0.8123 -2.5679  1.3365
17296SOL     OW53328   2.944   4.398   0.320 -0.5341 -0.6824  0.3744
17296SOL    HW153329   2.924   4.332   0.253 -0.5175 -0.9600  0.6388
17296SOL    HW253330   3.039   4.404   0.321 -0.5769  1.0367 -1.2677
17297SOL     OW53331   3.545   6.342   2.102 -0.3039 -0.0678 -0.3556
17297SOL    HW153332   3.592   6.267   2.137 -0.5096  0.2758  0.7020
17297SOL    HW253333   3.577   6.416   2.154 -0.3456  0.5299 -1.1592
17298SOL     OW53334   7.052   2.843   6.815  0.5621 -0.5605  0.6162
17298SOL    HW153335   7.082   2.934   6.811 -2.7153  0.6046 -1.3732
17298SOL    HW253336   6.999   2.839   6.895  0.0939 -0.4872  0.3120
17299SOL     OW53337   1.821   3.976   3.998 -0.5267 -0.3459 -0.1385
17299SOL    HW153338   1.766   3.923   3.940  0.1463 -1.3999  0.1592
17299SOL    HW253339   1.794   4.066   3.980 -2.2948 -0.8138 -0.0448
17300SOL     OW53340   0.097   1.724   4.044  0.3831 -0.4097 -0.2783
17300SOL    HW153341   0.122   1.681   3.962  2.3695 -3.1475  1.6044
17300SOL    HW253342   0.163   1.793   4.055  0.0787  0.0064 -0.9612
17301SOL     OW53343   6.676   6.911   0.522  0.7619  0.2808  0.1638
17301SOL    HW153344   6.752   6.906   0.463 -0.1380  0.4691 -1.0382
17301SOL    HW253345   6.700   6.978   0.586  1.6961  0.1831 -0.0686
17302SOL     OW53346   6.831   1.052  11.098 -0.1920 -0.7079 -0.0597
17302SOL    HW153347   6.894   0.980  11.092 -0.8573 -1.2565 -0.6417
17302SOL    HW253348   6.762   1.019  11.155 -0.2859 -0.3659  0.0257
17303SOL     OW53349   1.974   4.219  11.104 -0.0019 -0.2970  0.5430
17303SOL    HW153350   1.919   4.142  11.122  1.3473 -1.4570 -0.0759
17303SOL    HW253351   1.912   4.289  11.085 -1.2760 -1.5430 -0.0871
17304SOL     OW53352   0.878   5.139   9.936  0.0281 -0.6097  0.1599
17304SOL    HW153353   0.871   5.047   9.960  0.7073 -0.6843  0.0781
17304SOL    HW253354   0.963   5.167   9.969 -0.8557  0.4426  1.6731
17305SOL     OW53355   4.401   6.396   1.829 -0.0196  0.3260 -0.4838
17305SOL    HW153356   4.466   6.325   1.829  0.5906  0.8741 -0.0661
17305SOL    HW253357   4.392   6.420   1.737  1.5299  1.2641 -0.4383
17306SOL     OW53358   6.936   3.340   9.665 -0.0992 -0.0785  0.2213
17306SOL    HW153359   6.911   3.432   9.663 -0.8896 -0.2951 -1.5359
17306SOL    HW253360   6.981   3.325   9.583  1.6027 -0.8848  1.2488
17307SOL     OW53361   3.514   7.802   0.389  0.8572  0.1973  0.5675
17307SOL    HW153362   3.577   7.875   0.395 -1.3351  2.1583  1.0054
17307SOL    HW253363   3.503   7.772   0.479  2.9083 -1.8650  0.2491
17308SOL     OW53364   2.260   4.961   6.460 -0.0991 -0.0030 -0.9181
17308SOL    HW153365   2.301   5.016   6.393 -0.7705 -0.4537 -1.7241
17308SOL    HW253366   2.294   4.994   6.543  1.5432 -0.0726 -1.5179
17309SOL     OW53367   4.935   5.527   3.077 -0.4263 -0.2023 -0.0617
17309SOL    HW153368   5.006   5.463   3.083 -1.7897 -2.0381 -2.0402
17309SOL    HW253369   4.863   5.489   3.126 -0.7064  0.7088  0.2622
17310SOL     OW53370   1.588   6.862   2.602 -0.5788 -0.4384 -0.6967
17310SOL    HW153371   1.618   6.774   2.578  0.5035 -0.0470 -0.8319
17310SOL    HW253372   1.664   6.904   2.641 -1.7835 -0.4543  1.9139
17311SOL     OW53373   2.384   7.299   8.227  0.6405 -0.0327 -0.2365
17311SOL    HW153374   2.370   7.238   8.155  1.1573 -1.0162  0.4808
17311SOL    HW253375   2.370   7.248   8.306 -0.7447  1.2312  0.3831
17312SOL     OW53376   7.421   2.278  12.012  0.8863 -0.3247 -0.7303
17312SOL    HW153377   7.379   2.286  11.926 -1.0324 -0.0378  0.1885
17312SOL    HW253378   7.449   2.187  12.017  1.3104 -0.2666 -1.7767
17313SOL     OW53379   0.219   5.309   5.520  0.2144 -0.1335 -0.1041
17313SOL    HW153380   0.157   5.329   5.450  0.2539  0.2630 -0.0310
17313SOL    HW253381   0.301   5.289   5.475  0.2662  0.2200 -0.1694
17314SOL     OW53382   4.869   0.479   6.772 -0.2459  0.1368 -0.6762
17314SOL    HW153383   4.887   0.418   6.844 -0.6447  1.0905  0.2660
17314SOL    HW253384   4.955   0.499   6.736 -0.0048 -0.0730 -0.2262
17315SOL     OW53385   5.973   5.303   9.991 -0.1295 -0.1054  0.8517
17315SOL    HW153386   5.913   5.282  10.063  0.5707 -1.3564  1.1035
17315SOL    HW253387   6.037   5.232   9.992  0.7453  0.6408 -0.0842
17316SOL     OW53388   3.340   6.974   1.398 -0.4998 -0.2649  0.4471
17316SOL    HW153389   3.316   7.056   1.442  0.5188  0.6294 -0.5609
17316SOL    HW253390   3.428   6.991   1.364 -0.8845 -1.2076 -1.1358
17317SOL     OW53391   1.423   2.977   1.344  0.2073 -0.0198 -0.3518
17317SOL    HW153392   1.429   3.042   1.274  1.5076  0.4215  0.1307
17317SOL    HW253393   1.346   3.003   1.395 -0.5486 -0.1485 -1.4045
17318SOL     OW53394   4.165   1.500   8.196  0.7722 -0.2174 -0.5737
17318SOL    HW153395   4.173   1.549   8.278 -3.5369  1.5385 -0.9380
17318SOL    HW253396   4.186   1.564   8.128  2.6771 -1.2018 -0.9826
17319SOL     OW53397   3.203   1.262   4.987  0.1267  0.1216 -0.1091
17319SOL    HW153398   3.266   1.299   4.925 -1.2254  0.8804 -1.0691
17319SOL    HW253399   3.174   1.181   4.947 -1.4849  1.0875 -1.0280
17320SOL     OW53400   6.136   5.693   4.594  0.0950  0.0030  0.1446
17320SOL    HW153401   6.087   5.775   4.587  1.7000  0.9801 -0.2460
17320SOL    HW253402   6.148   5.679   4.688 -0.4197  0.0708  0.2202
17321SOL     OW53403   3.629   5.969   3.109 -0.6082 -0.0716 -0.0797
17321SOL    HW153404   3.707   5.939   3.063 -0.4661 -0.8552  0.6542
17321SOL    HW253405   3.653   6.056   3.143  0.8174 -1.2371  2.1375
17322SOL     OW53406   4.947   2.455   9.707  0.5487  0.4481  0.0152
17322SOL    HW153407   4.938   2.550   9.712 -0.4139  0.3016  2.6603
17322SOL    HW253408   4.861   2.424   9.679  0.4657  0.3038  0.4193
17323SOL     OW53409   4.260   6.292   9.836  0.0103 -0.1633  0.3002
17323SOL    HW153410   4.245   6.197   9.839 -1.9203  0.0880 -0.2416
17323SOL    HW253411   4.301   6.307   9.751 -1.5293 -0.3213 -0.5036
17324SOL     OW53412   0.101   5.410  12.384 -0.5497  0.2370  0.1896
17324SOL    HW153413   0.065   5.330  12.344 -0.8316  0.2509  0.4165
17324SOL    HW253414   0.196   5.398  12.378 -0.5902 -0.0960  0.1827
17325SOL     OW53415   2.157   4.607   2.659  0.1301 -0.4553  0.5884
17325SOL    HW153416   2.223   4.573   2.719  2.0582 -0.3799 -1.3692
17325SOL    HW253417   2.192   4.692   2.630 -1.0870 -0.1543 -0.0938
17326SOL     OW53418   1.864   2.201  11.118  0.4119  0.0323 -0.0371
17326SOL    HW153419   1.820   2.183  11.201 -0.0386  1.2402  0.0119
17326SOL    HW253420   1.797   2.244  11.065  0.4784 -1.3763 -1.3158
17327SOL     OW53421   5.745   2.223  11.198 -0.0181  0.3969  0.4987
17327SOL    HW153422   5.838   2.234  11.215  0.0456 -0.9375  1.1029
17327SOL    HW253423   5.730   2.271  11.116  1.3644 -0.0604 -0.0496
17328SOL     OW53424   0.103   4.092  12.131 -0.4656 -0.5412  0.3712
17328SOL    HW153425   0.053   4.110  12.210 -1.2548  0.0120 -0.2424
17328SOL    HW253426   0.037   4.075  12.064  0.1948 -1.2174 -0.1298
17329SOL     OW53427   0.600   7.782  10.870  0.1330 -0.5529 -0.2185
17329SOL    HW153428   0.571   7.759  10.782 -1.4182 -2.4747  0.7125
17329SOL    HW253429   0.694   7.795  10.862 -0.0296 -0.2389 -2.2151
17330SOL     OW53430   0.810   0.444   9.500 -0.4799  0.4774  0.0547
17330SOL    HW153431   0.804   0.435   9.405  0.5610  2.3791 -0.2430
17330SOL    HW253432   0.771   0.364   9.534  1.2040 -1.3458 -2.0019
17331SOL     OW53433   1.234   6.207  11.939 -0.6816  0.0671  0.3220
17331SOL    HW153434   1.280   6.258  12.005 -0.3442  0.1762  0.0044
17331SOL    HW253435   1.150   6.186  11.979  0.2339 -1.5029  1.5283
17332SOL     OW53436   0.871   2.099   6.744 -0.2767 -0.4071  0.1372
17332SOL    HW153437   0.959   2.102   6.707 -0.0371  0.2066  0.7253
17332SOL    HW253438   0.823   2.166   6.696 -0.3820 -0.6428 -0.0856
17333SOL     OW53439   6.911   7.097   1.288 -0.3282 -0.0656 -0.1182
17333SOL    HW153440   6.966   7.019   1.294 -1.4273 -0.7600  1.5814
17333SOL    HW253441   6.948   7.147   1.215  0.4211 -2.1434 -1.2158
17334SOL     OW53442   6.585   7.681   6.071 -0.2212 -0.6764 -0.0057
17334SOL    HW153443   6.593   7.766   6.115 -0.7179 -0.8960  0.5201
17334SOL    HW253444   6.642   7.688   5.995  0.9977 -0.4198  0.8929
17335SOL     OW53445   6.984   2.717   8.059  0.1254 -0.2790 -0.6101
17335SOL    HW153446   7.012   2.664   8.133 -0.0871 -0.8246 -0.9159
17335SOL    HW253447   6.913   2.771   8.094  0.7515  0.2563 -0.1416
17336SOL     OW53448   5.617   5.275   3.625 -0.0564 -0.6157  0.2525
17336SOL    HW153449   5.584   5.284   3.714  3.5498 -0.0876  1.7225
17336SOL    HW253450   5.595   5.184   3.601  0.8645 -1.5642  2.6622
17337SOL     OW53451   6.230   7.769   2.487 -0.4429 -0.0920 -0.1054
17337SOL    HW153452   6.221   7.724   2.572 -0.4474  2.6166  1.4306
17337SOL    HW253453   6.139   7.782   2.459 -0.5950  1.5380  0.9782
17338SOL     OW53454   0.815   2.280   3.260  0.1119 -0.1473  0.7363
17338SOL    HW153455   0.789   2.304   3.349  1.4852  1.2009  0.8210
17338SOL    HW253456   0.906   2.309   3.253  0.9271 -2.6032 -0.2534
17339SOL     OW53457   5.288   1.921   6.116 -0.1668  0.3616 -0.2597
17339SOL    HW153458   5.289   1.830   6.086  1.7641  0.0923  0.4792
17339SOL    HW253459   5.302   1.914   6.211 -1.7567  1.3775  0.0876
17340SOL     OW53460   0.390   3.745   6.981  0.3922  0.4590  0.1129
17340SOL    HW153461   0.389   3.823   6.925  0.0840  0.3870  0.0141
17340SOL    HW253462   0.406   3.779   7.069  2.4789  0.4339 -0.2205
17341SOL     OW53463   2.001   2.216  11.856  0.3393 -0.2139  0.1520
17341SOL    HW153464   2.064   2.255  11.794 -2.3554  0.6223 -2.2676
17341SOL    HW253465   1.938   2.286  11.872  0.1601 -0.9054  2.8400
17342SOL     OW53466   5.881   2.855   8.316 -0.5465 -0.4235 -0.2167
17342SOL    HW153467   5.931   2.814   8.387 -0.2218  2.7114  1.5578
17342SOL    HW253468   5.946   2.903   8.266 -1.2618  0.3814 -0.3841
17343SOL     OW53469   7.425   5.986  10.566 -0.3857  0.0493  0.1713
17343SOL    HW153470   7.329   5.988  10.568 -0.3785  1.5268 -0.0060
17343SOL    HW253471   7.448   6.035  10.487  0.5219  0.7993  0.8847
17344SOL     OW53472   7.010   0.892  11.697  0.7916  0.3240 -0.0654
17344SOL    HW153473   7.031   0.875  11.605  1.1661  0.0167  0.0771
17344SOL    HW253474   7.002   0.806  11.737  1.3959  0.4600  0.3624
17345SOL     OW53475   2.244   4.671   2.104 -0.0026  0.4370 -0.2311
17345SOL    HW153476   2.271   4.588   2.065 -1.0703  0.1571 -0.4077
17345SOL    HW253477   2.265   4.736   2.037  0.0273  0.1969 -0.4568
17346SOL     OW53478   0.318   7.358   5.905  0.2384  0.1751 -0.0722
17346SOL    HW153479   0.348   7.272   5.875 -0.1691  0.0420 -0.1127
17346SOL    HW253480   0.321   7.414   5.827 -1.7175 -0.4121 -0.6165
17347SOL     OW53481   0.515   3.115   7.040 -0.6056 -0.1339 -0.1999
17347SOL    HW153482   0.439   3.058   7.030 -0.9199  0.2396  0.0564
17347SOL    HW253483   0.586   3.055   7.065 -0.9964 -0.3763  0.3501
17348SOL     OW53484   4.476   0.658   1.830  0.2588  0.2034  0.5537
17348SOL    HW153485   4.455   0.565   1.821  3.5453 -0.6033 -0.1752
17348SOL    HW253486   4.495   0.687   1.741  0.3127  1.3107  0.9124
17349SOL     OW53487   3.962   4.207   9.528 -0.1012 -0.7509 -0.1470
17349SOL    HW153488   3.970   4.296   9.495 -1.3368  0.4183  2.4278
17349SOL    HW253489   3.909   4.162   9.462 -4.4216  2.0855  0.9468
17350SOL     OW53490   6.179   0.548   3.786 -0.1060  0.4338 -0.0043
17350SOL    HW153491   6.251   0.518   3.842 -1.4624 -0.0285  1.5806
17350SOL    HW253492   6.147   0.628   3.829  0.8043  1.9016 -1.9041
17351SOL     OW53493   1.189   2.575   5.114  0.5998  0.0450 -0.2151
17351SOL    HW153494   1.229   2.605   5.196  1.0773  0.7763 -0.6948
17351SOL    HW253495   1.258   2.524   5.072  0.6571  0.3834 -0.5400
17352SOL     OW53496   2.958   1.872   4.888 -0.4276  0.1757 -0.1692
17352SOL    HW153497   2.928   1.838   4.804  2.2022 -0.2209 -1.0450
17352SOL    HW253498   2.941   1.800   4.950 -0.7108 -0.2493 -0.7312
17353SOL     OW53499   4.937   5.089   8.471 -0.4553 -0.0522  0.2253
17353SOL    HW153500   4.897   5.176   8.476 -0.8555 -0.3106  2.5474
17353SOL    HW253501   4.863   5.029   8.461 -0.1247 -0.1427 -2.4934
17354SOL     OW53502   3.013   7.818   5.644 -0.2591 -0.1656  0.5487
17354SOL    HW153503   3.095   7.820   5.594 -0.9827  0.7824 -0.6742
17354SOL    HW253504   2.968   7.740   5.612 -1.2453  1.0681 -1.2498
17355SOL     OW53505   5.272   4.944   8.486  0.2601  0.1277 -0.5590
17355SOL    HW153506   5.347   4.971   8.540  0.3663  0.3457 -0.8140
17355SOL    HW253507   5.307   4.879   8.426  0.1678 -0.0222 -0.4527
17356SOL     OW53508   3.321   0.533   9.476  0.4414  0.3648  0.1228
17356SOL    HW153509   3.331   0.548   9.570 -1.6718  0.1996  0.4231
17356SOL    HW253510   3.307   0.620   9.439  1.4989  0.4562 -0.1078
17357SOL     OW53511   5.317   7.008  10.536 -0.2372  0.0102 -0.0382
17357SOL    HW153512   5.318   7.102  10.554  2.3113 -0.3201  2.1894
17357SOL    HW253513   5.405   6.988  10.506  0.2506 -2.0683  2.4199
17358SOL     OW53514   3.612   5.567   1.739 -0.0949  0.5565 -0.0246
17358SOL    HW153515   3.611   5.591   1.646  0.9363  0.3136 -0.1116
17358SOL    HW253516   3.597   5.473   1.740 -2.2134  0.8667  0.1989
17359SOL     OW53517   5.824   0.797   1.213 -0.0236 -0.7221 -0.3024
17359SOL    HW153518   5.742   0.755   1.239  0.1696 -2.6710 -2.5575
17359SOL    HW253519   5.891   0.730   1.225  0.5639 -0.5781 -2.4182
17360SOL     OW53520   3.474   6.692   1.591  0.1429 -0.0102  0.0225
17360SOL    HW153521   3.430   6.623   1.640  0.3988  0.5629  1.1007
17360SOL    HW253522   3.415   6.711   1.518 -0.7860 -0.1513  0.7137
17361SOL     OW53523   0.955   3.176   7.169 -0.3043  0.1033 -0.8270
17361SOL    HW153524   0.910   3.141   7.092  0.0777 -1.2234 -0.4659
17361SOL    HW253525   0.926   3.120   7.241 -0.1137  0.8931 -0.1233
17362SOL     OW53526   1.537   3.797   2.233  0.0097  0.4736 -0.3349
17362SOL    HW153527   1.455   3.790   2.185 -0.4608 -2.7538  0.6617
17362SOL    HW253528   1.605   3.781   2.168 -0.5354 -2.2721 -0.3527
17363SOL     OW53529   6.909   7.165   9.875  0.0600 -0.2721  0.4283
17363SOL    HW153530   6.982   7.221   9.847 -0.3415 -0.2143 -0.5513
17363SOL    HW253531   6.867   7.140   9.793 -1.3188  0.0956  1.0074
17364SOL     OW53532   6.531   7.704   2.746  0.8091  0.6354 -0.4767
17364SOL    HW153533   6.439   7.695   2.720  0.9535  1.1881 -1.2099
17364SOL    HW253534   6.580   7.653   2.681  0.8113 -3.0476  2.1105
17365SOL     OW53535   6.696   3.587   0.813 -0.1736  0.2579 -0.2227
17365SOL    HW153536   6.746   3.659   0.774 -1.3923  1.2052 -0.0725
17365SOL    HW253537   6.651   3.547   0.739  1.5886 -1.2883 -0.5275
17366SOL     OW53538   2.880   5.950   7.659  0.0905  0.0516  0.1277
17366SOL    HW153539   2.908   6.041   7.650 -0.7784  0.2091 -1.2376
17366SOL    HW253540   2.942   5.900   7.605  1.5732 -0.4145  2.1511
17367SOL     OW53541   7.472   6.965   4.218  0.3333 -0.0721 -0.6861
17367SOL    HW153542   7.415   6.950   4.143  1.4371  1.0189 -1.7644
17367SOL    HW253543   7.454   7.054   4.246  0.8268 -0.0456 -0.4308
17368SOL     OW53544   1.202   0.451  11.951 -0.2758  0.6167 -0.4806
17368SOL    HW153545   1.180   0.358  11.961 -0.5172  0.6415 -0.7431
17368SOL    HW253546   1.258   0.471  12.026 -0.1416  0.2335 -0.4746
17369SOL     OW53547   3.212   6.541   3.935  0.2380  0.0809 -0.0366
17369SOL    HW153548   3.281   6.544   4.001 -1.0546  1.1710  1.3471
17369SOL    HW253549   3.192   6.632   3.916 -0.2904 -0.2178 -0.9834
17370SOL     OW53550   2.402   3.364   9.367 -0.4308  0.3436 -0.4154
17370SOL    HW153551   2.369   3.447   9.334  0.7000  0.5042 -1.2138
17370SOL    HW253552   2.456   3.329   9.296 -0.5584 -0.8839  0.0590
17371SOL     OW53553   7.111   2.237   2.759  0.0471 -0.2801 -0.6804
17371SOL    HW153554   7.032   2.228   2.706  0.1006 -1.8217 -0.5299
17371SOL    HW253555   7.079   2.242   2.849  0.1190 -1.2046 -0.5952
17372SOL     OW53556   5.535   2.322  11.477 -0.0594  0.3386 -0.6103
17372SOL    HW153557   5.491   2.357  11.399  0.7411  2.1253 -0.3046
17372SOL    HW253558   5.560   2.400  11.527 -1.4335 -0.7536  1.9597
17373SOL     OW53559   4.287   7.585   2.744 -0.4388 -0.2271 -0.4191
17373SOL    HW153560   4.215   7.606   2.803  0.0008 -1.4935  0.5861
17373SOL    HW253561   4.273   7.494   2.720  1.8661 -1.1263  1.3492
17374SOL     OW53562   6.126   7.367   8.174  0.5025 -0.1049  0.2533
17374SOL    HW153563   6.095   7.401   8.090 -0.3981 -0.9521  0.2340
17374SOL    HW253564   6.174   7.288   8.152  0.0077 -0.4942  0.5568
17375SOL     OW53565   4.114   6.230   2.799  0.1371  0.8246  0.2730
17375SOL    HW153566   4.168   6.174   2.855  1.1331  1.9225  0.4489
17375SOL    HW253567   4.175   6.267   2.736 -1.2095 -1.8917 -2.9312
17376SOL     OW53568   6.063   7.845   7.062 -0.2115  0.4845 -0.3118
17376SOL    HW153569   6.016   7.829   7.144  0.0550  0.1704 -0.2217
17376SOL    HW253570   6.028   7.929   7.031 -1.3767 -0.1076 -0.6310
17377SOL     OW53571   0.152   7.368   7.236 -0.5197  0.5091  0.5122
17377SOL    HW153572   0.074   7.424   7.234 -0.6692  0.2933 -0.2441
17377SOL    HW253573   0.224   7.428   7.254 -0.4995  1.2091 -1.5853
17378SOL     OW53574   5.353   3.352  10.822  0.5127 -0.2653  0.0994
17378SOL    HW153575   5.393   3.265  10.825 -1.7036 -1.3224  2.4189
17378SOL    HW253576   5.290   3.347  10.750  0.9375 -0.3013 -0.2757
17379SOL     OW53577   0.283   0.583   7.238 -1.2155  0.4858 -0.2005
17379SOL    HW153578   0.195   0.546   7.243 -0.5952 -1.1691 -0.6650
17379SOL    HW253579   0.336   0.512   7.200  0.5264  1.0576  1.0571
17380SOL     OW53580   5.568   2.541  11.638 -0.7499 -0.1425 -0.0088
17380SOL    HW153581   5.639   2.606  11.643 -0.9620  0.4032 -2.5988
17380SOL    HW253582   5.489   2.591  11.656 -0.7243 -0.2223  0.3480
17381SOL     OW53583   3.227   1.034   2.519  0.3185 -0.0375 -0.0851
17381SOL    HW153584   3.216   1.062   2.428  0.2401 -0.7080 -0.2881
17381SOL    HW253585   3.314   0.992   2.521  0.3645  0.0712  0.1699
17382SOL     OW53586   2.445   5.253   8.213 -0.1666 -0.5699 -0.5466
17382SOL    HW153587   2.513   5.186   8.209 -0.5972 -1.2662  1.9609
17382SOL    HW253588   2.372   5.210   8.258 -1.2385  0.9708 -0.7389
17383SOL     OW53589   1.750   6.946   3.997 -0.4307 -0.1245  0.4230
17383SOL    HW153590   1.808   6.874   4.023  0.3006  0.9769  1.9604
17383SOL    HW253591   1.732   6.930   3.904  0.8119 -1.5288  0.3903
17384SOL     OW53592   5.083   6.681   9.495  0.2036  0.0969  0.9040
17384SOL    HW153593   5.018   6.721   9.553  0.9813 -0.6965  2.3840
17384SOL    HW253594   5.138   6.754   9.467 -0.9492  0.6919  0.0807
17385SOL     OW53595   6.329   2.727   8.117 -0.0987  0.0141  0.1223
17385SOL    HW153596   6.293   2.729   8.205  0.4771 -1.4719  0.4204
17385SOL    HW253597   6.423   2.717   8.129 -0.1847 -2.2596 -0.6047
17386SOL     OW53598   4.427   7.186   2.502  0.5124  0.5572  0.0179
17386SOL    HW153599   4.474   7.183   2.419  0.4082 -2.7113 -0.0597
17386SOL    HW253600   4.465   7.260   2.549  2.7417  0.6172 -1.7078
17387SOL     OW53601   1.722   7.671  10.209 -0.0720 -0.4658 -0.0673
17387SOL    HW153602   1.775   7.740  10.248  1.1929 -1.0179 -0.7333
17387SOL    HW253603   1.724   7.689  10.115 -0.7209 -0.7419 -0.1391
17388SOL     OW53604   6.082   3.356   1.441  0.2955 -0.0697 -0.1772
17388SOL    HW153605   6.006   3.300   1.455  1.5125 -1.5075  1.0145
17388SOL    HW253606   6.083   3.415   1.516 -0.8048  1.4187 -1.2722
17389SOL     OW53607   1.520   5.624   9.379  0.0548 -0.0901 -0.5315
17389SOL    HW153608   1.576   5.596   9.451  0.8096  2.9479  0.2218
17389SOL    HW253609   1.442   5.569   9.386  0.0319  0.1459  2.7305
17390SOL     OW53610   3.637   1.942   9.365  0.1018 -0.9540  0.2445
17390SOL    HW153611   3.692   1.917   9.440 -1.8465 -1.5583  1.5443
17390SOL    HW253612   3.573   2.003   9.401  0.2306  0.2171 -1.3721
17391SOL     OW53613   0.066   2.902   8.629 -0.5711  0.1347 -0.0565
17391SOL    HW153614   0.111   2.901   8.545  0.4252 -0.7876  0.4550
17391SOL    HW253615   0.086   2.989   8.666  0.8262 -0.2593  0.1573
17392SOL     OW53616   3.838   6.592   3.054  0.4358 -0.5188  0.5261
17392SOL    HW153617   3.905   6.660   3.047  0.0979  0.1189  2.7518
17392SOL    HW253618   3.838   6.550   2.968  0.2889  2.5757 -1.1245
17393SOL     OW53619   2.481   3.328  10.165 -0.0619 -0.3952  0.2600
17393SOL    HW153620   2.486   3.418  10.196  1.3238 -0.4891  0.3804
17393SOL    HW253621   2.413   3.329  10.098  0.5905  0.9605 -0.4161
17394SOL     OW53622   4.487   5.506  11.711 -0.6175  0.2208  0.1944
17394SOL    HW153623   4.503   5.501  11.806 -0.4600  0.3985  0.1767
17394SOL    HW253624   4.571   5.484  11.671 -0.0055  2.4994  0.1011
17395SOL     OW53625   2.839   4.507   8.247 -0.0673 -0.1666 -0.1254
17395SOL    HW153626   2.933   4.506   8.262 -0.0977  0.7268  0.1910
17395SOL    HW253627   2.824   4.436   8.184  0.8393 -0.1594 -0.3671
17396SOL     OW53628   0.957   5.665   9.831  0.2884 -0.6820 -0.3114
17396SOL    HW153629   0.921   5.629   9.750 -0.5702 -1.9751  0.6006
17396SOL    HW253630   1.004   5.591   9.871 -0.2667 -0.4024  0.9098
17397SOL     OW53631   6.791   1.503   3.388  0.2050  0.5160 -0.7963
17397SOL    HW153632   6.795   1.532   3.297 -1.3323  0.5338 -0.8871
17397SOL    HW253633   6.882   1.506   3.419  0.7008  0.7851 -2.2338
17398SOL     OW53634   0.498   1.842   8.304  0.1611  0.0160  0.2248
17398SOL    HW153635   0.430   1.775   8.308  0.3830 -0.2108  0.2604
17398SOL    HW253636   0.475   1.896   8.229  1.3367 -1.6074 -1.4068
17399SOL     OW53637   4.574   5.096   3.885  0.5110 -0.5719  0.2149
17399SOL    HW153638   4.518   5.126   3.814 -0.0216 -0.4861  0.6547
17399SOL    HW253639   4.647   5.053   3.842  0.6216  0.2045 -0.3952
17400SOL     OW53640   7.077   6.601   7.829  0.2622 -0.4194 -0.3666
17400SOL    HW153641   7.011   6.589   7.760  0.3793 -0.1474 -0.5303
17400SOL    HW253642   7.125   6.679   7.802  0.3655 -0.3605 -0.0173
17401SOL     OW53643   4.222   4.533  12.319  0.2501  0.4207 -0.0445
17401SOL    HW153644   4.203   4.441  12.337  0.6546  0.6183  1.4839
17401SOL    HW253645   4.292   4.531  12.254  0.4559 -0.3506  0.1982
17402SOL     OW53646   0.070   6.346  10.761 -0.0109 -0.5139  0.2119
17402SOL    HW153647   0.120   6.268  10.738 -0.5432 -0.6732 -0.4486
17402SOL    HW253648  -0.013   6.312  10.795 -0.0851 -0.2443  0.2994
17403SOL     OW53649   5.073   2.964   7.882  0.4246  0.3879  0.0684
17403SOL    HW153650   5.086   2.895   7.947  1.4905  2.6632  2.4450
17403SOL    HW253651   4.988   3.001   7.903 -0.0025  0.0684 -0.9993
17404SOL     OW53652   4.406   5.757   7.013  0.5652 -0.5664 -0.3581
17404SOL    HW153653   4.331   5.760   6.953  0.1893 -0.7468  0.0929
17404SOL    HW253654   4.414   5.664   7.036 -2.0370 -0.1087  3.2294
17405SOL     OW53655   2.162   6.431   9.243 -0.4099 -0.0218  0.5320
17405SOL    HW153656   2.235   6.421   9.303  0.2370  1.6735  0.1007
17405SOL    HW253657   2.112   6.505   9.278 -1.6580 -0.8359  0.5433
17406SOL     OW53658   0.069   0.144   9.681 -0.0985 -0.1373 -0.4733
17406SOL    HW153659   0.086   0.051   9.668  1.4585  0.0643 -0.0688
17406SOL    HW253660  -0.024   0.149   9.702 -0.7435 -1.3406 -2.7958
17407SOL     OW53661   0.557   5.747   0.063 -0.2742  0.3399 -0.1366
17407SOL    HW153662   0.519   5.719   0.146  0.4093 -1.4938 -0.3803
17407SOL    HW253663   0.483   5.745   0.001 -0.1477 -1.9516 -0.3299
17408SOL     OW53664   6.719   2.035  11.481 -0.2580 -0.1857  0.6000
17408SOL    HW153665   6.716   1.980  11.559 -0.4747  0.6266  1.1793
17408SOL    HW253666   6.809   2.066  11.477 -0.0172 -0.9209  0.0171
17409SOL     OW53667   3.105   5.976  10.831 -0.1745  0.3924 -0.6759
17409SOL    HW153668   3.105   5.884  10.808  1.5182 -0.1732  1.3233
17409SOL    HW253669   3.014   6.005  10.815 -1.3791 -2.2104  0.8613
17410SOL     OW53670   7.533   4.311   4.499  0.0488 -0.0819 -0.0235
17410SOL    HW153671   7.566   4.312   4.409 -0.2987 -0.7062 -0.1706
17410SOL    HW253672   7.440   4.289   4.489  0.0400 -0.2849  0.4992
17411SOL     OW53673   2.425   5.177   7.519 -0.0436  0.0848  0.1349
17411SOL    HW153674   2.391   5.134   7.597  1.6314 -0.4513  0.6142
17411SOL    HW253675   2.391   5.266   7.523 -1.5152 -0.4651  0.4538
17412SOL     OW53676   0.497   6.838   9.925  0.3646  0.8099 -0.4791
17412SOL    HW153677   0.541   6.904   9.979 -0.1360  0.1700  0.7646
17412SOL    HW253678   0.405   6.863   9.927 -0.0600 -0.6374  1.1871
17413SOL     OW53679   5.828   6.032   9.367  0.1080 -0.1889  0.5222
17413SOL    HW153680   5.798   6.121   9.347  0.4767  0.1789  1.5606
17413SOL    HW253681   5.787   5.978   9.300 -1.4122  0.5427  0.8115
17414SOL     OW53682   7.057   3.712  10.514  0.3164  0.1112  0.4931
17414SOL    HW153683   7.028   3.622  10.526  1.9685 -0.1993  2.9987
17414SOL    HW253684   7.134   3.706  10.457 -0.3172  0.1395 -0.3959
17415SOL     OW53685   4.031   2.233   5.652 -0.3556  0.1052 -0.5822
17415SOL    HW153686   4.058   2.253   5.742 -1.5306  1.3505 -0.4670
17415SOL    HW253687   4.111   2.202   5.609  0.4110  0.2795  0.6749
17416SOL     OW53688   3.377   1.014   9.759 -0.3217 -0.3745 -0.1279
17416SOL    HW153689   3.302   1.073   9.751  1.0538  1.3615 -0.8905
17416SOL    HW253690   3.372   0.981   9.849 -0.6612  1.6307  0.6419
17417SOL     OW53691   6.068   2.140   3.006  0.1958 -0.1079 -0.0019
17417SOL    HW153692   6.123   2.215   2.985  0.6408 -0.4153  0.0582
17417SOL    HW253693   6.093   2.116   3.095 -0.1712 -0.1362  0.0967
17418SOL     OW53694   0.369   7.200   3.961 -0.2386  0.3436  0.0507
17418SOL    HW153695   0.436   7.248   3.912  2.1734 -1.2650  1.5429
17418SOL    HW253696   0.332   7.140   3.897  0.5621  0.4706 -0.5618
17419SOL     OW53697   1.236   0.768   0.724  0.5019 -0.0283  0.0733
17419SOL    HW153698   1.175   0.841   0.729  0.5223 -0.0501  0.6319
17419SOL    HW253699   1.191   0.696   0.768  1.2373  0.1700  1.1965
17420SOL     OW53700   5.113   2.535  10.123  0.0164 -0.2049  0.3752
17420SOL    HW153701   5.044   2.517  10.187 -0.3755 -3.3474 -0.7375
17420SOL    HW253702   5.179   2.584  10.172 -1.0774 -0.9011  2.6996
17421SOL     OW53703   5.084   5.723   6.769 -0.0276 -0.2327 -0.6726
17421SOL    HW153704   5.076   5.812   6.733  1.3722 -0.4450 -1.5900
17421SOL    HW253705   5.011   5.715   6.830 -0.6913  1.2406 -1.2288
17422SOL     OW53706   2.142   4.195   1.957  0.0872 -0.2483  0.0363
17422SOL    HW153707   2.061   4.221   1.913  0.2434 -1.1417 -0.8011
17422SOL    HW253708   2.117   4.119   2.011 -0.0826  0.7707  1.4596
17423SOL     OW53709   5.292   6.272   2.938  0.2118  0.1916 -0.4590
17423SOL    HW153710   5.368   6.243   2.887  0.3124  0.5841 -0.5361
17423SOL    HW253711   5.307   6.365   2.953  0.8321 -0.1551  1.3738
17424SOL     OW53712   4.598   5.324   6.130  0.1260  0.0413 -0.2013
17424SOL    HW153713   4.608   5.390   6.061  0.0165 -0.2096 -0.4560
17424SOL    HW253714   4.620   5.241   6.088  1.3975  0.0445  0.4130
17425SOL     OW53715   0.966   6.384   5.150  0.7566 -0.5601 -0.4248
17425SOL    HW153716   0.875   6.364   5.173  1.2939 -1.7751  0.7926
17425SOL    HW253717   0.976   6.476   5.172  0.5685 -1.0822  2.2790
17426SOL     OW53718   3.576   5.490   7.878 -0.1993  0.1695  0.1168
17426SOL    HW153719   3.566   5.554   7.949 -1.4184  0.2909 -0.1369
17426SOL    HW253720   3.585   5.544   7.799  3.4915  0.1036  0.3499
17427SOL     OW53721   6.695   2.759   5.045  0.7610  0.0298  0.1280
17427SOL    HW153722   6.714   2.786   4.955  0.0521 -0.6472 -0.2294
17427SOL    HW253723   6.757   2.688   5.062  0.2884 -0.4581 -0.1520
17428SOL     OW53724   7.032   4.709   9.841 -0.0878  0.1412  0.0270
17428SOL    HW153725   6.960   4.771   9.835  0.1594  0.5679  1.2300
17428SOL    HW253726   7.027   4.675   9.930  0.2159 -1.0429 -0.3863
17429SOL     OW53727   1.854   1.797   4.688 -0.0187 -0.0155 -0.3824
17429SOL    HW153728   1.862   1.706   4.717  1.3463  0.0259 -0.5794
17429SOL    HW253729   1.944   1.825   4.672 -0.3695  1.5281  0.1566
17430SOL     OW53730   6.347   2.269   7.483 -0.4562  0.3312 -0.1103
17430SOL    HW153731   6.433   2.228   7.483 -0.5253  0.1640 -1.2356
17430SOL    HW253732   6.286   2.195   7.476 -0.6885  0.4650  0.4559
17431SOL     OW53733   0.528   0.890  10.670 -0.0647 -0.3630  0.1845
17431SOL    HW153734   0.449   0.944  10.669  1.2814  1.7477  0.8733
17431SOL    HW253735   0.557   0.892  10.762  0.3311 -1.8223  0.1117
17432SOL     OW53736   7.464   2.496   0.469  0.0786 -0.1612 -0.1225
17432SOL    HW153737   7.520   2.573   0.479  0.4854 -0.5974  1.2705
17432SOL    HW253738   7.506   2.444   0.401  1.2203 -0.3265  0.6755
17433SOL     OW53739   2.081   2.251   8.281 -0.5403 -0.2690 -0.1655
17433SOL    HW153740   2.141   2.297   8.340 -0.7605 -1.4039  0.9905
17433SOL    HW253741   2.082   2.303   8.200  2.1585 -0.3714 -0.2844
17434SOL     OW53742   6.039   7.523  12.107 -0.2288  0.5676 -0.5149
17434SOL    HW153743   6.003   7.544  12.020 -1.7567 -1.3808 -0.4182
17434SOL    HW253744   6.085   7.440  12.095 -2.1303 -0.7739  0.8620
17435SOL     OW53745   0.274   3.806  11.761 -0.1336  0.4938 -0.3707
17435SOL    HW153746   0.351   3.771  11.716 -0.7756  0.8308 -1.7676
17435SOL    HW253747   0.304   3.889  11.798  0.1440  0.7017 -1.0417
17436SOL     OW53748   1.567   2.691  11.800  0.0542  0.2726  0.6476
17436SOL    HW153749   1.537   2.603  11.825 -0.8276  0.1990 -0.5501
17436SOL    HW253750   1.648   2.704  11.849  0.3332 -1.3159  0.6599
17437SOL     OW53751   1.583   2.872   8.027 -0.1595 -0.1313 -0.3234
17437SOL    HW153752   1.622   2.789   7.998  1.4860  0.0485  1.1579
17437SOL    HW253753   1.653   2.914   8.078 -1.8782  0.8826  1.3242
17438SOL     OW53754   2.829   5.008   9.218 -0.2602 -0.0870 -0.3095
17438SOL    HW153755   2.914   4.987   9.257  0.1414  2.3707  0.3597
17438SOL    HW253756   2.847   5.012   9.124  0.3597  0.3112 -0.1827
17439SOL     OW53757   5.361   6.517   5.424 -0.1236 -0.7942  0.2345
17439SOL    HW153758   5.384   6.427   5.447 -0.6970 -0.4964  2.1063
17439SOL    HW253759   5.303   6.507   5.348 -1.5363 -2.1771  1.3981
17440SOL     OW53760   0.531   7.022   3.635  0.2124  0.0669  0.7376
17440SOL    HW153761   0.551   6.991   3.546 -1.7464  0.6917  0.0290
17440SOL    HW253762   0.617   7.037   3.675  1.3544 -4.4088  0.5249
17441SOL     OW53763   2.956   3.693   4.052  0.2897  0.3347 -0.0139
17441SOL    HW153764   2.925   3.613   4.095  0.6952  0.6821  0.9524
17441SOL    HW253765   3.041   3.668   4.015  1.3473  0.8009  1.9619
17442SOL     OW53766   1.870   1.561   6.053 -0.3408  0.0236  0.4984
17442SOL    HW153767   1.895   1.607   5.973 -2.7113  1.3220  0.4081
17442SOL    HW253768   1.832   1.479   6.023 -0.1474 -0.0265  0.3849
17443SOL     OW53769   6.898   4.554  12.042 -0.0707  0.2104 -0.1819
17443SOL    HW153770   6.902   4.461  12.018  0.9480  0.4047 -0.8313
17443SOL    HW253771   6.914   4.600  11.960  2.5393  0.9072  0.6252
17444SOL     OW53772   6.061   7.287   4.916  0.3026  0.6013  0.1643
17444SOL    HW153773   6.073   7.374   4.954  0.9718  0.9531 -0.7839
17444SOL    HW253774   6.123   7.285   4.842 -0.1366 -0.4544 -0.1976
17445SOL     OW53775   2.463   5.611   8.689 -0.2631 -0.0582 -0.1908
17445SOL    HW153776   2.489   5.590   8.599 -2.1137  1.5216 -1.1591
17445SOL    HW253777   2.368   5.600   8.689 -0.3614  0.6081  1.4046
17446SOL     OW53778   4.106   1.784   3.425 -0.0612  0.0738  0.0233
17446SOL    HW153779   4.106   1.854   3.490 -0.5817  1.6717 -1.5865
17446SOL    HW253780   4.192   1.789   3.384 -0.1803 -0.0621 -0.2457
17447SOL     OW53781   7.075   1.393   0.819  0.0527 -0.5951  0.0864
17447SOL    HW153782   7.121   1.310   0.807 -0.8453 -1.0937 -0.0289
17447SOL    HW253783   7.097   1.444   0.741 -0.6937 -1.3703 -0.6563
17448SOL     OW53784   7.817   6.464   5.073 -0.5610  0.5387 -0.6857
17448SOL    HW153785   7.757   6.527   5.034 -0.8437  0.7691  0.0887
17448SOL    HW253786   7.765   6.384   5.084 -0.7255  0.7227 -0.0606
17449SOL     OW53787   4.544   7.472   3.159  0.0607 -0.3648 -0.2998
17449SOL    HW153788   4.627   7.427   3.145 -0.2898 -1.0247 -0.3095
17449SOL    HW253789   4.492   7.410   3.210 -0.0686  0.4435  0.5725
17450SOL     OW53790   0.423   1.650   4.069  0.0433 -0.2964 -0.4514
17450SOL    HW153791   0.408   1.583   4.002  0.8413 -0.4998 -0.4372
17450SOL    HW253792   0.377   1.617   4.146 -1.8852  0.5105 -1.2107
17451SOL     OW53793   4.505   0.861   0.028  0.2636 -0.3600  0.1511
17451SOL    HW153794   4.519   0.909   0.109  1.3649 -0.1411 -0.1523
17451SOL    HW253795   4.562   0.903  -0.035 -1.2416  0.0572 -0.9997
17452SOL     OW53796   6.556   2.111   0.709 -0.1043  0.2151 -0.2706
17452SOL    HW153797   6.480   2.107   0.768 -2.7663  1.9470 -3.2419
17452SOL    HW253798   6.544   2.037   0.650 -0.2647  1.2298 -1.5508
17453SOL     OW53799   2.678   2.769   5.658  0.1861  0.6050 -0.2362
17453SOL    HW153800   2.766   2.746   5.685  0.0289  1.1403  0.7835
17453SOL    HW253801   2.631   2.785   5.740 -0.6855  0.9489 -0.7851
17454SOL     OW53802   7.077   4.996   1.387  0.0323 -0.0803  0.6032
17454SOL    HW153803   7.158   4.953   1.359 -0.0227  0.4374 -0.3910
17454SOL    HW253804   7.038   5.027   1.306 -1.3310 -0.5920  1.0442
17455SOL     OW53805   5.604   4.363   4.962 -0.0975  0.0989  0.0595
17455SOL    HW153806   5.635   4.441   5.009 -0.6626  0.2045  0.2698
17455SOL    HW253807   5.511   4.378   4.950 -0.0761 -0.2233 -0.5409
17456SOL     OW53808   7.511   0.501  11.950  0.4834  0.0743 -0.1241
17456SOL    HW153809   7.493   0.558  11.875 -0.7829 -1.2951 -0.9168
17456SOL    HW253810   7.597   0.463  11.931  0.6252  0.5094 -0.3723
17457SOL     OW53811   7.025   2.692  10.866 -0.7123  0.3091  0.1780
17457SOL    HW153812   7.100   2.679  10.924 -1.7539 -0.5533  1.3970
17457SOL    HW253813   7.062   2.691  10.778  0.7829  0.5951  0.7793
17458SOL     OW53814   0.288   3.426   5.297 -0.1002  0.1789  0.1789
17458SOL    HW153815   0.232   3.414   5.373  0.1638 -1.6660  0.1324
17458SOL    HW253816   0.353   3.492   5.324 -0.1592 -0.2733  1.4610
17459SOL     OW53817   7.574   5.748   7.389  0.2872 -0.0334  0.3367
17459SOL    HW153818   7.591   5.765   7.296 -0.4521 -0.3763  0.1268
17459SOL    HW253819   7.523   5.823   7.418 -0.0796 -0.2539  0.2770
17460SOL     OW53820   0.621   6.367   6.094 -0.2254  0.1364  0.5028
17460SOL    HW153821   0.532   6.337   6.115  0.4850 -1.5388  1.3161
17460SOL    HW253822   0.608   6.440   6.034 -2.1539 -0.1483  0.5087
17461SOL     OW53823   2.411   0.232   6.690 -0.0839  0.5374  0.5484
17461SOL    HW153824   2.457   0.224   6.607 -1.3986  0.4259 -0.1916
17461SOL    HW253825   2.444   0.160   6.743 -0.6959 -0.6307 -0.6077
17462SOL     OW53826   5.145   2.690  12.219  0.5082 -0.3948 -0.0391
17462SOL    HW153827   5.145   2.598  12.194 -0.6462 -0.1639 -1.0099
17462SOL    HW253828   5.062   2.724  12.184 -0.1651  0.5057  2.2243
17463SOL     OW53829   1.482   4.158   7.941 -0.7164  0.1940  0.0887
17463SOL    HW153830   1.558   4.170   7.999 -0.9596  1.0933  0.2397
17463SOL    HW253831   1.420   4.225   7.969  0.2467  2.6282 -2.9988
17464SOL     OW53832   6.203   7.025   4.981 -0.1904  0.1764  0.4624
17464SOL    HW153833   6.161   7.111   4.990 -0.4397  0.4494 -2.4739
17464SOL    HW253834   6.144   6.975   4.926  0.2453 -1.7450  1.6559
17465SOL     OW53835   2.997   4.156   3.828 -0.6381 -0.4527  0.0647
17465SOL    HW153836   2.991   4.126   3.737 -2.0352  0.1909 -0.0799
17465SOL    HW253837   2.958   4.085   3.879 -2.5837  0.3837 -0.1466
17466SOL     OW53838   3.365   3.757   6.794 -0.0774 -0.2547  0.4252
17466SOL    HW153839   3.285   3.804   6.817 -0.6108 -0.9467  0.0419
17466SOL    HW253840   3.342   3.664   6.805  0.3286 -0.5063 -0.7507
17467SOL     OW53841   1.392   7.918  11.224 -0.5544 -0.2031 -0.1657
17467SOL    HW153842   1.476   7.886  11.258 -0.9694 -1.0685  0.0730
17467SOL    HW253843   1.409   7.934  11.131 -0.5996 -2.2545 -0.5914
17468SOL     OW53844   1.028   6.749   6.153 -0.2742  0.3221 -0.3530
17468SOL    HW153845   1.069   6.786   6.074  0.5075  0.2990  0.0295
17468SOL    HW253846   1.061   6.804   6.224 -0.1755 -0.2822  0.0681
17469SOL     OW53847   2.227   1.452   6.098  0.4568  0.0424  0.5870
17469SOL    HW153848   2.238   1.377   6.039 -0.3973  1.1467 -1.0694
17469SOL    HW253849   2.293   1.515   6.070 -0.4619  0.8939  0.2400
17470SOL     OW53850   4.154   2.514   8.131 -0.0502  0.4452 -0.4519
17470SOL    HW153851   4.143   2.609   8.121 -0.2339  0.5189  0.3739
17470SOL    HW253852   4.177   2.502   8.223  0.7480 -0.2532 -0.7284
17471SOL     OW53853   6.098   6.444   1.891 -0.1565 -0.4321  0.1879
17471SOL    HW153854   6.017   6.413   1.932 -0.8403  2.3274  1.0870
17471SOL    HW253855   6.069   6.506   1.824  1.1650 -1.0058 -0.9618
17472SOL     OW53856   4.396   2.320   8.585  0.0527  0.1554 -0.4201
17472SOL    HW153857   4.389   2.226   8.566  1.0496  0.4675 -2.6147
17472SOL    HW253858   4.429   2.359   8.504  0.2864  2.3346  0.6420
17473SOL     OW53859   5.331   3.811   7.208  0.1453  0.7242  0.4828
17473SOL    HW153860   5.287   3.751   7.269  1.3051 -1.3513 -0.6263
17473SOL    HW253861   5.391   3.862   7.263  0.1719 -0.1212  1.2551
17474SOL     OW53862   3.721   4.681   3.314 -0.9235  0.3050  0.5649
17474SOL    HW153863   3.733   4.724   3.230 -2.0876 -0.7671 -0.1885
17474SOL    HW253864   3.789   4.614   3.317  0.4939  1.7028  1.4681
17475SOL     OW53865   2.914   1.942   4.164 -0.0060 -0.8083 -0.4199
17475SOL    HW153866   2.861   1.993   4.225  0.4935  0.9472 -1.3988
17475SOL    HW253867   2.907   1.989   4.081  2.3381 -1.0561 -0.8105
17476SOL     OW53868   3.417   1.102   6.757 -0.0588  0.1655  0.0002
17476SOL    HW153869   3.322   1.101   6.753 -0.1462  0.2344  1.4602
17476SOL    HW253870   3.438   1.079   6.847  1.3139  0.2123 -0.2739
17477SOL     OW53871   4.827   4.024   9.872 -0.1756  0.1829  0.2573
17477SOL    HW153872   4.884   4.099   9.859  0.4659 -0.4359 -0.5663
17477SOL    HW253873   4.838   4.001   9.965 -0.5298  1.2071  0.5669
17478SOL     OW53874   2.239   5.413  10.332 -0.3251 -0.1954 -0.1078
17478SOL    HW153875   2.240   5.381  10.241  1.5460  1.0620 -0.5835
17478SOL    HW253876   2.168   5.476  10.334 -0.1618  0.0215 -0.8112
17479SOL     OW53877   2.527   5.025  10.940 -0.1181  0.3773 -0.5197
17479SOL    HW153878   2.569   5.020  11.026 -1.3035  0.4027  0.0795
17479SOL    HW253879   2.592   5.069  10.884  0.7739  0.1146  0.2805
17480SOL     OW53880   0.574   7.618   4.491  0.4600  0.0653 -0.2630
17480SOL    HW153881   0.643   7.599   4.555 -0.2510 -0.3886  0.3814
17480SOL    HW253882   0.550   7.533   4.455 -1.8988 -0.2461  1.7686
17481SOL     OW53883   0.379   7.467   6.474 -0.0948  0.5689  0.6433
17481SOL    HW153884   0.366   7.408   6.549 -1.1717 -0.7522 -0.5295
17481SOL    HW253885   0.464   7.508   6.491  1.8660 -3.0196  0.4352
17482SOL     OW53886   2.096   0.968  12.079 -0.1950 -0.4870  0.0315
17482SOL    HW153887   2.123   1.045  12.029 -0.2530 -0.1948  0.4384
17482SOL    HW253888   2.141   0.895  12.037  0.5775 -0.1153  0.1829
17483SOL     OW53889   2.737   5.238   5.444  0.1260 -0.6293 -0.1068
17483SOL    HW153890   2.710   5.287   5.367  0.0263 -1.5409 -0.6648
17483SOL    HW253891   2.661   5.184   5.467  0.2959 -0.6687  0.3789
17484SOL     OW53892   5.138   5.698   9.306 -0.1866 -0.6605  0.1527
17484SOL    HW153893   5.155   5.744   9.389  1.4466 -1.8131  0.4923
17484SOL    HW253894   5.046   5.717   9.288  0.1717  1.9740  0.7261
17485SOL     OW53895   7.491   4.767   0.557 -0.5908  0.6760 -0.6763
17485SOL    HW153896   7.435   4.788   0.632  0.7835  0.0582  0.5754
17485SOL    HW253897   7.486   4.845   0.500 -0.4095  1.8528  0.8474
17486SOL     OW53898   2.239   0.757   4.030 -0.0472 -0.0184 -0.2763
17486SOL    HW153899   2.168   0.726   4.086  0.4268  0.5855  0.6867
17486SOL    HW253900   2.195   0.784   3.949 -1.3403  2.7357  1.1949
17487SOL     OW53901   7.629   1.784   2.809 -0.3238  0.5231  0.3890
17487SOL    HW153902   7.554   1.811   2.756  0.4165  1.6953 -0.1001
17487SOL    HW253903   7.629   1.689   2.804 -2.8195  0.3681  1.8636
17488SOL     OW53904   0.173   1.613   4.344  0.5286 -0.2392 -0.2632
17488SOL    HW153905   0.211   1.526   4.335  1.3109  0.1249 -0.5913
17488SOL    HW253906   0.149   1.639   4.255  0.7224  0.0570 -0.2337
17489SOL     OW53907   2.225   6.349   8.030  0.4441 -0.0475 -0.0310
17489SOL    HW153908   2.207   6.347   7.936 -1.7289 -1.7954  0.3318
17489SOL    HW253909   2.307   6.398   8.038  1.1119 -0.5119 -2.8913
17490SOL     OW53910   7.562   3.609   9.323  0.4812 -0.3808 -0.1891
17490SOL    HW153911   7.496   3.674   9.346  0.3604 -0.9862  1.3204
17490SOL    HW253912   7.521   3.525   9.345  0.9740 -0.9142 -1.2331
17491SOL     OW53913   2.624   2.419   2.030  0.1739  0.1773  0.3976
17491SOL    HW153914   2.665   2.360   1.968 -1.0685  0.1160 -0.4159
17491SOL    HW253915   2.684   2.423   2.104  1.0388 -0.8204 -0.2300
17492SOL     OW53916   6.488   7.445   6.179  0.1816  0.1859  0.0036
17492SOL    HW153917   6.533   7.506   6.121 -0.8723 -0.7143 -1.8849
17492SOL    HW253918   6.558   7.399   6.225  1.0039  2.0566  0.6904
17493SOL     OW53919   7.732   0.812   1.835  0.0629  0.1603  0.4118
17493SOL    HW153920   7.736   0.722   1.804 -0.3562  0.0881  0.5548
17493SOL    HW253921   7.695   0.862   1.762 -1.2400 -0.0662  0.8862
17494SOL     OW53922   5.439   3.196   2.256  0.4363 -0.6613  0.1569
17494SOL    HW153923   5.476   3.283   2.238 -0.7868 -0.4574 -1.6000
17494SOL    HW253924   5.515   3.143   2.281  1.1807  0.9420  1.5762
17495SOL     OW53925   5.386   4.776   0.700 -0.2141  0.1729  0.2213
17495SOL    HW153926   5.481   4.791   0.704 -0.3371  0.7385  1.9526
17495SOL    HW253927   5.373   4.729   0.618  1.4857  0.6466 -0.3659
17496SOL     OW53928   1.787   6.014   5.285 -0.0160 -0.2000  0.0449
17496SOL    HW153929   1.851   6.046   5.349 -1.9822  4.6704  0.0263
17496SOL    HW253930   1.819   6.046   5.201 -1.1031 -0.0712 -0.3305
17497SOL     OW53931   3.178   2.977  11.500 -0.3639  0.0900  0.3563
17497SOL    HW153932   3.124   2.912  11.456  1.2546 -0.9667 -0.1736
17497SOL    HW253933   3.126   3.005  11.576 -1.2415 -1.5584  0.3945
17498SOL     OW53934   6.290   6.334   2.965 -0.2955 -0.1642 -0.6775
17498SOL    HW153935   6.317   6.317   2.875 -1.0255  2.1141 -1.3754
17498SOL    HW253936   6.370   6.324   3.016 -0.0326 -2.2800 -1.4115
17499SOL     OW53937   3.213   4.931  12.014 -0.1765  0.0197 -0.0554
17499SOL    HW153938   3.191   4.916  11.922 -0.5526  1.4370 -0.2240
17499SOL    HW253939   3.308   4.945  12.014 -0.2305  0.4040 -0.2951
17500SOL     OW53940   2.202   7.202   2.729  0.5518  0.1379  0.0663
17500SOL    HW153941   2.250   7.158   2.800 -0.8721 -0.7967  0.5062
17500SOL    HW253942   2.110   7.195   2.756  0.0355  0.3132 -1.5898
17501SOL     OW53943   0.746   3.874   7.078 -0.7422  0.4107 -0.0102
17501SOL    HW153944   0.739   3.939   7.008  0.0993  0.0105 -0.4699
17501SOL    HW253945   0.760   3.926   7.157 -3.0508  0.9610  0.1308
17502SOL     OW53946   0.453   0.577   3.326 -0.1509 -0.2175 -0.5704
17502SOL    HW153947   0.535   0.588   3.279  0.7827 -0.3958  0.9310
17502SOL    HW253948   0.463   0.632   3.404 -0.9605 -1.1788  0.2392
17503SOL     OW53949   5.292   0.730   8.379  0.2799 -0.3963  0.4499
17503SOL    HW153950   5.367   0.674   8.397  0.6268  0.0132  0.3069
17503SOL    HW253951   5.322   0.788   8.308 -0.2416 -0.3722  0.2441
17504SOL     OW53952   1.938   2.901   9.382  0.6276  0.4511 -0.5644
17504SOL    HW153953   1.964   2.912   9.473  2.0018  0.9707 -1.0021
17504SOL    HW253954   1.851   2.942   9.377 -0.1823 -0.9999  0.8429
17505SOL     OW53955   4.777   6.865   2.742  0.1900 -0.0122  0.6383
17505SOL    HW153956   4.857   6.845   2.790 -0.1042  0.0167  1.1567
17505SOL    HW253957   4.790   6.954   2.709  0.6878 -0.3023  0.0460
17506SOL     OW53958   6.654   0.771   2.674  0.0834  0.1642  0.2001
17506SOL    HW153959   6.595   0.781   2.749  1.3679  0.9786  1.1425
17506SOL    HW253960   6.740   0.798   2.707  0.9298 -0.6616 -1.2267
17507SOL     OW53961   2.304   6.930   5.672  0.2538  0.2733 -0.1028
17507SOL    HW153962   2.352   6.934   5.589 -0.1196 -0.6944 -0.3699
17507SOL    HW253963   2.339   7.004   5.722  0.9823  0.4595 -0.8479
17508SOL     OW53964   5.517   3.503  10.014  0.2747 -0.3933 -0.1152
17508SOL    HW153965   5.553   3.453  10.088  0.3114 -1.4408 -0.8249
17508SOL    HW253966   5.531   3.448   9.938  3.1287  1.9605 -1.5053
17509SOL     OW53967   2.702   7.734   7.797 -0.2440 -0.3211 -0.0401
17509SOL    HW153968   2.709   7.825   7.823 -4.9644  0.7889 -1.6200
17509SOL    HW253969   2.640   7.695   7.859 -0.4595 -1.6409 -1.0140
17510SOL     OW53970   5.475   2.864   8.171  0.2070  0.6034 -0.6219
17510SOL    HW153971   5.411   2.828   8.233  0.1365  1.5274 -0.1462
17510SOL    HW253972   5.511   2.787   8.127  1.6559 -0.2878  1.8941
17511SOL     OW53973   6.313   0.123  11.724  0.3366 -0.5182  0.4789
17511SOL    HW153974   6.340   0.153  11.811 -0.4375 -1.1583  0.9518
17511SOL    HW253975   6.218   0.117  11.729  0.2486 -0.1612 -0.5495
17512SOL     OW53976   2.464   6.269   1.253 -0.2190 -0.2795  0.0107
17512SOL    HW153977   2.512   6.326   1.313 -0.0383 -0.9934  0.5620
17512SOL    HW253978   2.455   6.320   1.173  0.7596  0.1691  0.1716
17513SOL     OW53979   3.234   6.815  12.049  0.2542  0.2507 -0.8654
17513SOL    HW153980   3.210   6.730  12.087  0.4856  0.3143 -0.5746
17513SOL    HW253981   3.235   6.799  11.955 -0.6233  0.1691 -0.8671
17514SOL     OW53982   2.536   0.491   7.032  0.3966  0.1517 -0.0302
17514SOL    HW153983   2.582   0.571   7.059  0.9266  0.2128 -1.0688
17514SOL    HW253984   2.486   0.465   7.109 -0.4521  1.9487  0.0880
17515SOL     OW53985   2.278   5.337   1.945 -0.5233 -0.0292  0.2532
17515SOL    HW153986   2.197   5.384   1.926  0.2723  1.3334  0.0994
17515SOL    HW253987   2.311   5.379   2.025 -1.1768 -2.1968  1.7456
17516SOL     OW53988   1.680   6.698   5.815  0.4026  0.5522 -0.2412
17516SOL    HW153989   1.727   6.665   5.892  0.5335 -0.8237 -0.8850
17516SOL    HW253990   1.588   6.685   5.835  0.4660 -2.2244 -1.2626
17517SOL     OW53991   0.573   0.961   7.495 -0.1689  0.2645 -0.4791
17517SOL    HW153992   0.537   0.884   7.451 -0.9437 -0.3274  1.0855
17517SOL    HW253993   0.667   0.957   7.476  0.0388 -1.8639  0.6261
17518SOL     OW53994   5.513   7.474   8.150 -0.0127  0.6069  0.0335
17518SOL    HW153995   5.434   7.515   8.116  0.7001  0.5846 -1.7550
17518SOL    HW253996   5.519   7.391   8.102  0.7848  0.3415  0.5755
17519SOL     OW53997   3.875   0.458  10.766  0.2505  0.2460 -0.5208
17519SOL    HW153998   3.802   0.402  10.793  0.2652  0.0208 -0.9464
17519SOL    HW253999   3.884   0.442  10.672  1.1574 -0.0883 -0.3815
17520SOL     OW54000   3.874   1.274   9.411 -1.0831 -0.5061 -0.6526
17520SOL    HW154001   3.932   1.350   9.412 -3.0372  1.0767 -0.6218
17520SOL    HW254002   3.874   1.242   9.501 -0.5936 -0.2505 -0.5624
17521SOL     OW54003   3.499   7.165   8.363  0.0150  0.0781  0.1739
17521SOL    HW154004   3.433   7.128   8.304 -0.0269  1.4055 -0.6564
17521SOL    HW254005   3.448   7.208   8.431  0.0283  0.3391  0.0209
17522SOL     OW54006   2.500   6.094   3.766  0.3112  0.1520  0.2115
17522SOL    HW154007   2.478   6.001   3.764  0.2572  0.1666  0.0791
17522SOL    HW254008   2.549   6.106   3.847  0.8651 -0.1202 -0.0717
17523SOL     OW54009   1.305   1.717  11.022 -0.2069  0.4874 -0.2192
17523SOL    HW154010   1.227   1.725  11.078 -0.1540  2.0220 -0.3116
17523SOL    HW254011   1.275   1.743  10.935  0.4674  1.3974 -0.1904
17524SOL     OW54012   1.295   0.868  10.513 -0.0423  0.2141  0.2761
17524SOL    HW154013   1.386   0.857  10.487 -0.5180 -2.3423 -0.7002
17524SOL    HW254014   1.282   0.802  10.582 -1.1937  0.3554  0.2142
17525SOL     OW54015   5.252   1.708   3.561  0.5531 -0.2329  0.0751
17525SOL    HW154016   5.342   1.677   3.574 -0.2223 -2.4703  0.5431
17525SOL    HW254017   5.210   1.638   3.511 -1.0452  0.5842  0.2414
17526SOL     OW54018   3.272   2.811  11.208 -0.2436 -0.8354 -0.1045
17526SOL    HW154019   3.286   2.839  11.298 -3.3273  0.7492  0.0152
17526SOL    HW254020   3.294   2.718  11.208  2.7130 -0.2657  1.4652
17527SOL     OW54021   3.267   2.071   6.388 -0.4468  0.2876  0.3085
17527SOL    HW154022   3.263   2.148   6.445 -0.9098  0.3692  0.1672
17527SOL    HW254023   3.205   2.090   6.318  1.5427  1.0776 -1.3443
17528SOL     OW54024   7.768   7.811   5.077 -0.1733  0.0735  0.2866
17528SOL    HW154025   7.783   7.750   5.004  0.6833  0.8064 -0.1741
17528SOL    HW254026   7.841   7.873   5.071  0.0934 -0.0513  1.9882
17529SOL     OW54027   3.943   0.082   5.754 -0.0101  0.0759 -0.3729
17529SOL    HW154028   4.006   0.127   5.697 -0.9614 -0.1781 -1.6800
17529SOL    HW254029   3.871   0.144   5.765 -0.8268 -0.6660 -1.2858
17530SOL     OW54030   4.321   1.303   1.924 -0.7666 -0.1462 -0.0532
17530SOL    HW154031   4.298   1.217   1.889 -0.7681 -0.4552  0.6787
17530SOL    HW254032   4.255   1.320   1.991 -1.3861  0.9012 -0.9006
17531SOL     OW54033   4.264   0.988   6.987  0.4033 -0.2414 -0.0169
17531SOL    HW154034   4.170   0.969   6.983  0.7644 -2.0013 -1.0879
17531SOL    HW254035   4.298   0.929   7.055  0.9388 -0.6436 -0.6201
17532SOL     OW54036   1.817   6.234   6.183 -1.0836  0.3131 -0.2077
17532SOL    HW154037   1.880   6.204   6.248 -2.8552 -0.6693  1.1514
17532SOL    HW254038   1.866   6.238   6.102  0.2245 -2.7381  0.2952
17533SOL     OW54039   5.501   1.405   4.252 -0.0949 -0.0757 -0.1457
17533SOL    HW154040   5.434   1.336   4.255  1.1696 -1.3965 -0.9590
17533SOL    HW254041   5.552   1.386   4.173  1.8529  0.2666  0.9459
17534SOL     OW54042   7.348   1.170   7.057 -0.5184  0.2385  0.4058
17534SOL    HW154043   7.286   1.169   6.984  1.0992 -1.6184 -1.0530
17534SOL    HW254044   7.398   1.251   7.044 -0.3791  0.0279 -0.4477
17535SOL     OW54045   1.234   2.156   3.212  0.2487  0.1335  0.1195
17535SOL    HW154046   1.185   2.101   3.273 -0.4558  1.1846  0.5161
17535SOL    HW254047   1.179   2.232   3.197  0.9301  0.4554 -0.9206
17536SOL     OW54048   5.915   4.380  12.029 -0.7230  0.0377  0.2037
17536SOL    HW154049   5.963   4.458  12.000  0.5355 -0.5967  0.5426
17536SOL    HW254050   5.971   4.307  12.006 -0.8638 -0.6444  1.8840
17537SOL     OW54051   6.148   7.705   0.383  0.5532  0.1889  0.1956
17537SOL    HW154052   6.105   7.744   0.460  1.5190 -0.8485  1.2843
17537SOL    HW254053   6.090   7.633   0.358  0.3911  0.3446  0.1140
17538SOL     OW54054   1.894   5.546   5.427 -0.2229  0.0402 -0.1509
17538SOL    HW154055   1.849   5.462   5.424 -0.5985  0.2007  0.7558
17538SOL    HW254056   1.832   5.609   5.390 -0.1276  0.0108 -0.3681
17539SOL     OW54057   7.113   3.351  10.734 -0.3657  0.6404 -0.2141
17539SOL    HW154058   7.076   3.356  10.822  0.8596  0.3872  0.3270
17539SOL    HW254059   7.166   3.272  10.734  0.3035  1.0667 -0.9183
17540SOL     OW54060   5.120   2.710   3.412 -0.2167  0.0183  0.5571
17540SOL    HW154061   5.038   2.660   3.406  0.6821 -1.4260 -0.4433
17540SOL    HW254062   5.096   2.790   3.458 -2.3464 -0.0377 -0.3365
17541SOL     OW54063   6.931   0.897  10.483  0.0261 -0.0961 -0.1084
17541SOL    HW154064   6.987   0.868  10.555  1.1970 -0.8629 -1.2803
17541SOL    HW254065   6.992   0.916  10.412 -1.0230  1.6134 -0.6086
17542SOL     OW54066   3.857   3.231   4.859  0.1367  0.3455 -0.1070
17542SOL    HW154067   3.825   3.296   4.795 -0.4709 -1.5858 -1.8623
17542SOL    HW254068   3.781   3.214   4.915  0.3289  1.1931  0.4320
17543SOL     OW54069   5.144   5.862   8.504 -0.7689  0.4211  0.3449
17543SOL    HW154070   5.156   5.942   8.452  0.9830 -0.0314 -0.0315
17543SOL    HW254071   5.233   5.833   8.524 -1.3777 -1.0116  1.1565
17544SOL     OW54072   1.092   1.172  11.323  0.4317  0.3203 -0.0383
17544SOL    HW154073   1.037   1.100  11.292  1.2220 -0.4991  0.3749
17544SOL    HW254074   1.031   1.236  11.359 -0.3633  0.3849 -1.4417
17545SOL     OW54075   2.217   3.380   7.216  0.1237 -0.0823 -0.6728
17545SOL    HW154076   2.189   3.290   7.232 -0.3300  0.0369 -0.7961
17545SOL    HW254077   2.136   3.429   7.205  0.1622  0.9341  2.4143
17546SOL     OW54078   1.208   2.047   0.824 -0.1792  0.0419  0.5620
17546SOL    HW154079   1.247   2.132   0.803  0.5945  0.1741  2.3599
17546SOL    HW254080   1.114   2.063   0.827 -0.1865  0.4111 -0.8323
17547SOL     OW54081   6.554   6.870   6.183 -0.5437  0.2939  0.1276
17547SOL    HW154082   6.516   6.874   6.271  2.0905 -1.6002  1.5043
17547SOL    HW254083   6.614   6.944   6.180  0.5619 -0.5557  0.6050
17548SOL     OW54084   0.949   2.553  11.547 -0.0620 -0.1848  0.4309
17548SOL    HW154085   0.893   2.518  11.616 -2.0144  1.4289 -0.2170
17548SOL    HW254086   1.013   2.608  11.592 -1.4672  1.0509  1.0144
17549SOL     OW54087   6.004   0.232   0.685  0.0745  0.2552 -0.2741
17549SOL    HW154088   6.062   0.308   0.678  0.8196  0.0804  2.7434
17549SOL    HW254089   6.053   0.160   0.645  0.7463  0.7015 -0.2714
17550SOL     OW54090   1.870   6.262   2.544  0.1618  0.4157  0.2981
17550SOL    HW154091   1.914   6.178   2.559  0.9326  1.2124  3.2183
17550SOL    HW254092   1.911   6.296   2.465  1.7758 -0.8055  0.5360
17551SOL     OW54093   7.136   7.059   7.697  0.3348 -0.6710  0.3182
17551SOL    HW154094   7.079   7.043   7.622  0.1629  1.5193 -0.0952
17551SOL    HW254095   7.092   7.015   7.770 -0.7207 -0.8748 -0.4130
17552SOL     OW54096   4.301   5.123   2.110  0.7413  0.4278  0.5128
17552SOL    HW154097   4.249   5.148   2.186 -1.3418 -0.7263 -0.4753
17552SOL    HW254098   4.367   5.063   2.145  0.7007  0.9847  1.5968
17553SOL     OW54099   3.452   5.299   4.111  0.3121 -0.8955  0.3121
17553SOL    HW154100   3.541   5.316   4.081  0.5885 -1.1675  0.9493
17553SOL    HW254101   3.422   5.382   4.147 -0.0215 -0.5684 -0.6980
17554SOL     OW54102   6.522   7.853   5.359 -0.1544  0.0911 -0.2476
17554SOL    HW154103   6.534   7.886   5.448  1.3102  0.8046 -0.6848
17554SOL    HW254104   6.445   7.900   5.326  0.9489  1.9114 -0.3001
17555SOL     OW54105   7.065   5.665   0.610  0.0751  0.0160 -0.0431
17555SOL    HW154106   7.133   5.602   0.634 -1.1947 -1.6272 -0.6550
17555SOL    HW254107   7.069   5.731   0.680  1.7332 -0.4646  0.3660
17556SOL     OW54108   3.372   6.043   0.923 -0.2742  0.1454  0.6566
17556SOL    HW154109   3.409   6.025   1.010 -2.1771 -1.6761  1.1409
17556SOL    HW254110   3.298   6.102   0.940 -0.5531 -0.0839  0.2471
17557SOL     OW54111   4.295   2.856  11.088 -0.3870 -0.0772  0.3520
17557SOL    HW154112   4.371   2.857  11.030 -0.5614 -0.2007  0.1220
17557SOL    HW254113   4.220   2.873  11.031 -0.5022  0.3474  0.6234
17558SOL     OW54114   1.828   2.185   6.740  0.4620 -0.1496 -0.0158
17558SOL    HW154115   1.817   2.123   6.812 -2.3180 -0.2834 -0.4377
17558SOL    HW254116   1.865   2.132   6.669  0.0930 -0.8255  0.2859
17559SOL     OW54117   4.178   6.211   7.194  0.0165  0.0670  0.0883
17559SOL    HW154118   4.204   6.153   7.266 -1.0882  2.2616  2.3879
17559SOL    HW254119   4.083   6.209   7.195 -0.0240  1.3422 -0.2941
17560SOL     OW54120   1.163   1.298   7.192 -0.7814  0.0092  0.0280
17560SOL    HW154121   1.081   1.255   7.215 -0.5437 -0.9034 -0.7655
17560SOL    HW254122   1.229   1.229   7.198 -0.2205  0.5180 -0.2219
17561SOL     OW54123   1.483   7.061  10.887 -0.1758  0.0956  0.0402
17561SOL    HW154124   1.425   6.988  10.864 -0.7526 -0.0730  1.8522
17561SOL    HW254125   1.442   7.101  10.964  2.3369 -0.3376  1.7375
17562SOL     OW54126   3.283   7.381   0.377 -0.7716 -0.5202 -0.3155
17562SOL    HW154127   3.315   7.471   0.381 -0.1719 -0.7593  1.0080
17562SOL    HW254128   3.188   7.389   0.372 -0.9910  0.2497  2.8947
17563SOL     OW54129   4.326   5.328   0.603 -0.1255 -0.3250  0.1519
17563SOL    HW154130   4.242   5.286   0.587  0.7691 -2.4243  0.5663
17563SOL    HW254131   4.319   5.363   0.692 -0.3791 -1.0205  0.4135
17564SOL     OW54132   2.568   7.904   1.057  0.1551 -0.0126  0.1447
17564SOL    HW154133   2.555   7.839   1.126  0.8388  0.2595  0.5439
17564SOL    HW254134   2.486   7.953   1.054  1.2634  2.3257  3.2752
17565SOL     OW54135   3.723   4.927   8.209 -0.4020  0.3448  0.3099
17565SOL    HW154136   3.715   4.854   8.148 -2.3913  0.8614 -0.1272
17565SOL    HW254137   3.707   4.887   8.295  0.2636 -0.0188  0.2703
17566SOL     OW54138   7.460   7.350   0.055  0.0642 -0.2522  0.4856
17566SOL    HW154139   7.501   7.387  -0.023 -1.6844 -2.0562 -1.4246
17566SOL    HW254140   7.399   7.418   0.084 -1.1765 -0.5179 -1.3508
17567SOL     OW54141   0.833   0.823   7.533  0.1026  0.5187 -0.1830
17567SOL    HW154142   0.748   0.787   7.560 -0.1327  1.4269  0.3471
17567SOL    HW254143   0.896   0.782   7.592  0.2888 -1.4018 -1.6150
17568SOL     OW54144   0.758   6.664   7.379  0.7188  0.2453  0.3495
17568SOL    HW154145   0.752   6.574   7.347 -1.5690 -0.0095  1.3306
17568SOL    HW254146   0.844   6.694   7.349  1.0451 -1.8461 -1.0287
17569SOL     OW54147   2.642   0.153   2.199 -0.2006 -0.3473 -0.0264
17569SOL    HW154148   2.706   0.179   2.133 -0.1188  1.5142  0.7146
17569SOL    HW254149   2.557   0.163   2.156 -0.1113 -3.6245 -1.2902
17570SOL     OW54150   5.660   6.295   6.219 -0.3617  0.0079  0.1193
17570SOL    HW154151   5.608   6.288   6.138 -0.4771 -0.9333  0.2662
17570SOL    HW254152   5.735   6.349   6.194 -1.0345  0.7782 -0.2872
17571SOL     OW54153   1.245   5.324  10.317 -0.2189  0.0211  0.0792
17571SOL    HW154154   1.276   5.348  10.230  0.8559  0.7551  0.6464
17571SOL    HW254155   1.319   5.342  10.375 -1.1286  0.1602  1.2339
17572SOL     OW54156   2.234   3.402   1.756  0.3942 -0.0787  0.2605
17572SOL    HW154157   2.151   3.449   1.743 -0.4283 -1.4285  0.3909
17572SOL    HW254158   2.247   3.353   1.675 -0.1540 -1.6414  1.0707
17573SOL     OW54159   6.272   3.296   8.438 -0.1515 -0.5925 -0.7724
17573SOL    HW154160   6.219   3.356   8.491  1.3347 -0.4485  0.6165
17573SOL    HW254161   6.346   3.350   8.408  0.6890 -1.4701 -0.3258
17574SOL     OW54162   5.611   5.170   2.338  0.0171  0.0235 -0.4265
17574SOL    HW154163   5.523   5.143   2.310  0.3375 -1.5533 -0.0387
17574SOL    HW254164   5.615   5.263   2.318 -2.1392  0.4094  0.5441
17575SOL     OW54165   2.502   6.742   7.881  0.3881  0.4099  0.1301
17575SOL    HW154166   2.476   6.650   7.869 -0.1476  0.4909  0.5819
17575SOL    HW254167   2.597   6.740   7.887  0.3347 -0.2105  0.8581
17576SOL     OW54168   7.442   6.425  12.310 -0.3065  0.1201 -0.4580
17576SOL    HW154169   7.456   6.402  12.402 -1.5159 -1.3802 -0.5993
17576SOL    HW254170   7.529   6.444  12.276  0.0656  1.6262  1.2006
17577SOL     OW54171   0.412   2.713   7.621 -0.0650  0.1685 -0.1146
17577SOL    HW154172   0.501   2.744   7.637 -0.4924  0.7108  1.3091
17577SOL    HW254173   0.390   2.749   7.534  0.3235  1.8950  0.4506
17578SOL     OW54174   4.483   7.631   4.093  0.2175 -0.5014  0.0327
17578SOL    HW154175   4.573   7.640   4.060  0.7056  0.7384  1.5394
17578SOL    HW254176   4.437   7.706   4.055 -0.0494 -0.8248 -0.2909
17579SOL     OW54177   1.721   2.743   4.662  0.5832  0.5248  0.3860
17579SOL    HW154178   1.732   2.720   4.569  0.9763  0.1266  0.5288
17579SOL    HW254179   1.659   2.816   4.661 -0.0942 -0.0445 -0.1282
17580SOL     OW54180   0.176   2.321   5.417 -0.8341 -0.2656 -0.5205
17580SOL    HW154181   0.228   2.260   5.365  1.1850  1.2937 -0.4092
17580SOL    HW254182   0.215   2.319   5.504 -0.6080  1.2601 -0.5508
17581SOL     OW54183   5.839   6.535   8.188  0.1930  0.2076 -0.7253
17581SOL    HW154184   5.906   6.479   8.228  1.8709  1.6417 -1.4061
17581SOL    HW254185   5.815   6.596   8.258  0.0605  0.0892 -0.6678
17582SOL     OW54186   5.628   0.921   9.169  0.3268 -0.2483 -0.0383
17582SOL    HW154187   5.548   0.901   9.122  0.0399 -0.2442  0.4409
17582SOL    HW254188   5.655   0.837   9.207 -1.3509  0.3197  2.7091
17583SOL     OW54189   2.868   0.120   2.382 -0.2138  0.0906  0.0855
17583SOL    HW154190   2.789   0.126   2.328 -0.9031  0.1466  1.0693
17583SOL    HW254191   2.939   0.103   2.319 -0.0283  5.3402 -1.5713
17584SOL     OW54192   7.883   1.073   8.625 -0.1014  0.1046  0.4035
17584SOL    HW154193   7.875   1.030   8.539 -1.0006 -3.2553  1.9860
17584SOL    HW254194   7.806   1.128   8.631  0.4615  1.1722 -1.2558
17585SOL     OW54195   7.197   5.870   6.066  0.7620 -0.2690  0.0418
17585SOL    HW154196   7.194   5.893   5.973 -0.4798 -1.1952 -0.1593
17585SOL    HW254197   7.138   5.796   6.075  1.0905 -0.3818  1.5307
17586SOL     OW54198   0.732   7.051   1.185  0.4883 -0.0433 -0.1654
17586SOL    HW154199   0.720   7.061   1.091 -0.6664 -1.1736 -0.1553
17586SOL    HW254200   0.656   7.095   1.224 -0.8713 -2.4267  0.0870
17587SOL     OW54201   2.073   5.261   6.067 -0.1819 -0.3811  0.7762
17587SOL    HW154202   2.144   5.291   6.124  1.0226 -0.8558 -0.4203
17587SOL    HW254203   2.038   5.341   6.029  0.2684 -0.2027  0.7324
17588SOL     OW54204   6.000   7.498   7.974 -0.0078  0.0324  0.0672
17588SOL    HW154205   5.907   7.483   7.987 -0.0635 -0.9332 -1.1876
17588SOL    HW254206   6.014   7.590   7.997 -0.7788 -0.3980  2.5852
17589SOL     OW54207   0.750   6.746   7.052  0.1290 -0.1104 -0.3402
17589SOL    HW154208   0.799   6.666   7.037  1.1103  0.3095  0.5410
17589SOL    HW254209   0.802   6.795   7.116 -1.6280  0.1666  0.9561
17590SOL     OW54210   5.786   3.793   7.462  0.2432  0.2051 -0.0169
17590SOL    HW154211   5.784   3.827   7.551  1.2048 -2.2862  1.0493
17590SOL    HW254212   5.740   3.709   7.466 -0.3842  0.3852 -2.0565
17591SOL     OW54213   7.661   1.629   6.086 -0.0986 -0.3999  0.5662
17591SOL    HW154214   7.697   1.715   6.105 -0.9417 -0.1080  0.8776
17591SOL    HW254215   7.682   1.577   6.164 -0.5898 -0.1550  0.8616
17592SOL     OW54216   5.774   6.418   3.810 -0.4855 -0.4214  0.1451
17592SOL    HW154217   5.753   6.505   3.776  0.0035  0.4117  1.8611
17592SOL    HW254218   5.766   6.360   3.734  0.7099  1.3405 -1.4060
17593SOL     OW54219   6.357   5.982   3.558  0.2699  0.4367  0.0101
17593SOL    HW154220   6.299   6.036   3.504  1.0315  0.4615 -0.8086
17593SOL    HW254221   6.325   5.995   3.647 -2.2429 -1.1241 -0.5660
17594SOL     OW54222   2.177   1.692  11.040  0.2576  0.2212  0.5185
17594SOL    HW154223   2.266   1.663  11.060  1.0639  0.4635 -2.2498
17594SOL    HW254224   2.128   1.612  11.026  0.8372  0.0822 -0.8427
17595SOL     OW54225   0.306   6.798   6.785 -0.2078  0.3323 -0.1038
17595SOL    HW154226   0.220   6.822   6.750 -0.4410  0.3271  0.4629
17595SOL    HW254227   0.297   6.810   6.879  0.4087  0.3080 -0.0429
17596SOL     OW54228   4.292   0.715   2.608 -0.1279  0.0351  0.6095
17596SOL    HW154229   4.268   0.790   2.553 -0.7303  0.2357  1.1348
17596SOL    HW254230   4.361   0.671   2.559 -0.5745  0.2732 -0.2567
17597SOL     OW54231   6.620   0.179   2.398  1.0256  0.4045  0.2779
17597SOL    HW154232   6.578   0.108   2.350  1.3423 -0.2215  0.9257
17597SOL    HW254233   6.676   0.222   2.333 -0.3285  1.0513 -0.5165
17598SOL     OW54234   0.063   3.599  10.359 -0.4273 -0.1002 -0.4317
17598SOL    HW154235  -0.018   3.583  10.309 -0.1847 -2.4309 -0.1756
17598SOL    HW254236   0.122   3.528  10.333  1.3483  1.2059 -0.1427
17599SOL     OW54237   5.471   4.031   8.367  0.2154 -0.0101 -0.2070
17599SOL    HW154238   5.524   3.967   8.416  0.8218  1.0081  0.5166
17599SOL    HW254239   5.536   4.091   8.329 -0.2184 -0.8299 -2.4304
17600SOL     OW54240   5.244   1.738   5.339  0.9646 -0.1019 -0.2462
17600SOL    HW154241   5.163   1.776   5.371  2.0284  2.6142 -0.5081
17600SOL    HW254242   5.224   1.708   5.251  0.1440  0.1411 -0.1493
17601SOL     OW54243   3.446   0.593   4.362 -1.0341  0.2625  0.0251
17601SOL    HW154244   3.496   0.670   4.390 -1.1228  0.5388 -0.5573
17601SOL    HW254245   3.508   0.541   4.311 -0.5536 -0.7874  1.6033
17602SOL     OW54246   6.479   7.179   2.596 -0.2259 -0.5417 -0.1480
17602SOL    HW154247   6.462   7.176   2.502 -0.4902 -0.1548 -0.1176
17602SOL    HW254248   6.574   7.178   2.604 -0.1942 -0.1095 -0.4397
17603SOL     OW54249   1.168   5.523   6.270 -0.1767  0.0663 -0.1297
17603SOL    HW154250   1.188   5.553   6.359  1.9207  0.5337 -0.6832
17603SOL    HW254251   1.073   5.526   6.264 -0.2837  2.6729  1.2314
17604SOL     OW54252   2.536   4.084   4.474  0.5883  0.1839 -0.2792
17604SOL    HW154253   2.544   4.015   4.409  0.3311 -0.6237  0.5287
17604SOL    HW254254   2.602   4.063   4.541  0.0352  0.3060  0.3205
17605SOL     OW54255   0.383   3.117   4.167 -0.3629  0.1768  0.3144
17605SOL    HW154256   0.414   3.069   4.090 -1.5302  1.4940 -1.0492
17605SOL    HW254257   0.333   3.053   4.217 -0.1555 -0.5447 -0.3790
17606SOL     OW54258   6.759   1.847  10.708 -0.4109  0.2501  0.3581
17606SOL    HW154259   6.690   1.858  10.642 -1.2396 -0.0016  1.1496
17606SOL    HW254260   6.803   1.765  10.683 -0.8099  0.0806  0.1963
17607SOL     OW54261   0.931   1.634   7.991 -0.2033 -0.3450 -0.6472
17607SOL    HW154262   1.026   1.627   8.004 -0.4860 -2.0149  0.8023
17607SOL    HW254263   0.922   1.698   7.920  2.0471 -0.9842 -1.6210
17608SOL     OW54264   5.826   6.959   8.524  0.0196  0.3181  0.3518
17608SOL    HW154265   5.843   6.929   8.613  0.4049 -0.6895 -0.0484
17608SOL    HW254266   5.740   7.000   8.529  0.1639  0.5418  1.2459
17609SOL     OW54267   5.366   2.366   0.878 -0.1599 -0.4119  0.0703
17609SOL    HW154268   5.334   2.435   0.935  1.5666 -0.8516  1.6691
17609SOL    HW254269   5.287   2.328   0.840 -1.2286  1.3525  0.4263
17610SOL     OW54270   5.765   6.716  12.280 -0.5229  0.3112 -0.3703
17610SOL    HW154271   5.813   6.699  12.199  0.9541  1.3449  0.2328
17610SOL    HW254272   5.826   6.690  12.349 -1.0035  1.2507  0.4311
17611SOL     OW54273   0.538   4.707   3.059 -0.6137 -0.4744  0.2672
17611SOL    HW154274   0.554   4.618   3.027 -1.3639 -0.7396  0.6052
17611SOL    HW254275   0.533   4.761   2.980  0.5319 -0.6019  0.0860
17612SOL     OW54276   1.192   0.972   9.547 -0.3880  0.1925 -0.3077
17612SOL    HW154277   1.132   1.042   9.522 -0.7305 -0.2828 -0.8366
17612SOL    HW254278   1.270   0.987   9.494 -0.3666  0.3166 -0.2412
17613SOL     OW54279   4.844   7.562   8.118  0.6020 -0.3618 -0.5499
17613SOL    HW154280   4.765   7.562   8.172  1.1516  0.9318  0.2980
17613SOL    HW254281   4.909   7.607   8.171  0.4443  3.5927 -3.2840
17614SOL     OW54282   6.086   3.459   6.134  0.1074  0.4196 -0.0172
17614SOL    HW154283   6.172   3.423   6.112  1.7802  2.2192  2.9330
17614SOL    HW254284   6.059   3.412   6.213 -1.0235  0.8014 -0.1493
17615SOL     OW54285   1.852   5.036   4.260  0.6725 -0.2844  0.1816
17615SOL    HW154286   1.866   5.130   4.268  1.0077 -0.1910 -1.2128
17615SOL    HW254287   1.792   5.014   4.332  0.2029  1.0707  0.2253
17616SOL     OW54288   7.881   0.023   5.769  0.3203 -0.0881 -0.2500
17616SOL    HW154289   7.971   0.040   5.745  0.4976 -1.1974 -0.4542
17616SOL    HW254290   7.830   0.044   5.690  0.3798  0.6422 -0.0983
17617SOL     OW54291   4.653   5.494  10.350  0.5381 -0.7643 -0.3829
17617SOL    HW154292   4.587   5.466  10.286  1.7141 -1.3935 -1.3589
17617SOL    HW254293   4.720   5.425  10.348  1.8866  0.4910 -0.3944
17618SOL     OW54294   7.177   7.360   7.869  0.6325  0.1825  0.0524
17618SOL    HW154295   7.200   7.452   7.881  2.8045 -0.3466  0.3362
17618SOL    HW254296   7.161   7.327   7.957 -0.9674  0.4459 -0.1102
17619SOL     OW54297   1.463   0.234  11.072 -0.2133  0.0077 -0.3097
17619SOL    HW154298   1.497   0.320  11.046 -1.9915  1.2564  1.1885
17619SOL    HW254299   1.443   0.244  11.165 -0.7459 -1.9467 -0.1760
17620SOL     OW54300   4.540   2.701   6.507 -0.3423 -0.2056  0.0541
17620SOL    HW154301   4.469   2.753   6.543 -0.1361 -0.1707  0.4132
17620SOL    HW254302   4.540   2.621   6.559 -2.1707 -1.6455 -1.9748
17621SOL     OW54303   6.909   0.257   4.901 -0.6803 -0.0535  0.9211
17621SOL    HW154304   6.925   0.224   4.812 -0.2850 -2.6829  1.8872
17621SOL    HW254305   6.935   0.349   4.897  0.2618 -0.3454 -1.4370
17622SOL     OW54306   3.705   1.219   8.382  0.3902 -0.2566 -0.3461
17622SOL    HW154307   3.707   1.124   8.389  0.6332 -0.3952 -1.8325
17622SOL    HW254308   3.797   1.245   8.377  0.3703  0.1841  1.1778
17623SOL     OW54309   2.142   2.071   5.731  0.2711  0.6890 -0.0651
17623SOL    HW154310   2.104   2.081   5.818  0.0106  0.1303 -0.1087
17623SOL    HW254311   2.234   2.050   5.747  0.0829 -0.0366  0.0970
17624SOL     OW54312   3.506   3.546   4.886 -0.2974 -0.0005 -0.2701
17624SOL    HW154313   3.590   3.580   4.918  1.0475 -1.8558 -1.6463
17624SOL    HW254314   3.480   3.481   4.952 -0.8795  0.8356  0.3467
17625SOL     OW54315   4.637   3.453   0.676 -0.1589  0.0540 -0.0411
17625SOL    HW154316   4.611   3.536   0.714 -0.1401 -0.6814  1.6754
17625SOL    HW254317   4.676   3.476   0.592 -0.9159  1.6873  0.0205
17626SOL     OW54318   2.518   2.642   0.254  0.3508  0.2926 -0.2098
17626SOL    HW154319   2.487   2.647   0.345  1.3191  0.3329  0.1250
17626SOL    HW254320   2.532   2.548   0.239  1.4089  0.3935  0.1065
17627SOL     OW54321   7.569   6.682  10.965  0.3725  0.1205  0.4448
17627SOL    HW154322   7.654   6.642  10.982  0.8974  0.4229 -1.2391
17627SOL    HW254323   7.590   6.762  10.917 -0.7963  1.0951  1.4729
17628SOL     OW54324   2.065   4.665   0.077  0.0401  0.6022  0.1327
17628SOL    HW154325   2.109   4.605   0.016  1.1253  0.3196  1.1578
17628SOL    HW254326   2.103   4.750   0.058  1.5924  0.2558  1.4528
17629SOL     OW54327   6.108   2.808  10.369  0.0724  0.2708 -0.1552
17629SOL    HW154328   6.025   2.773  10.337 -0.0633 -0.3762  0.8291
17629SOL    HW254329   6.083   2.877  10.430  0.3042  0.9956 -0.8645
17630SOL     OW54330   2.616   3.677   5.717  0.0766  0.4922  0.5595
17630SOL    HW154331   2.611   3.590   5.758 -1.1477  0.2156 -0.1288
17630SOL    HW254332   2.592   3.738   5.787  0.5965  0.2489  0.9544
17631SOL     OW54333   0.098   1.292  10.408  0.4440 -0.0451  0.2845
17631SOL    HW154334   0.183   1.314  10.447  1.0624  0.2819 -1.1470
17631SOL    HW254335   0.069   1.214  10.455  2.6276 -1.5136 -0.6352
17632SOL     OW54336   3.826   4.657   9.777 -0.6745 -0.6358  0.2883
17632SOL    HW154337   3.751   4.647   9.835  0.9794  0.8356  2.8972
17632SOL    HW254338   3.795   4.713   9.707 -1.9964  0.1492  1.4482
17633SOL     OW54339   1.758   0.635   6.904  0.5956 -0.3195 -0.2274
17633SOL    HW154340   1.804   0.603   6.982 -0.1420 -0.7626  0.0285
17633SOL    HW254341   1.755   0.560   6.845 -0.4959 -0.5299  0.0793
17634SOL     OW54342   3.079   4.629   6.925  0.3811  1.1596 -0.3573
17634SOL    HW154343   3.039   4.545   6.901 -1.7906  1.8973  0.4758
17634SOL    HW254344   3.172   4.616   6.908  0.0351 -1.2039 -0.8517
17635SOL     OW54345   4.730   4.671   3.080  0.4861  0.1049 -0.0424
17635SOL    HW154346   4.732   4.583   3.042 -0.0408 -0.4933  1.2594
17635SOL    HW254347   4.760   4.659   3.170 -1.8884  0.8294  0.9188
17636SOL     OW54348   6.061   7.655   2.022  0.4518 -0.2419 -0.0824
17636SOL    HW154349   6.066   7.614   1.936  0.1842  1.1063 -0.7701
17636SOL    HW254350   6.093   7.744   2.008  0.4999 -0.0264  1.2423
17637SOL     OW54351   5.268   2.187   9.564 -0.2563 -0.2627  0.2446
17637SOL    HW154352   5.316   2.153   9.488 -0.8341  1.1977 -0.8158
17637SOL    HW254353   5.179   2.199   9.532 -0.1005  2.1381  0.5555
17638SOL     OW54354   2.227   1.372   1.839  0.0890  0.0374 -0.7056
17638SOL    HW154355   2.157   1.373   1.773  0.0620 -1.9857 -0.7628
17638SOL    HW254356   2.303   1.338   1.793  0.8825  1.3264 -0.3918
17639SOL     OW54357   4.097   7.620   4.527 -0.4151 -0.3472 -0.0734
17639SOL    HW154358   4.066   7.531   4.546 -0.0596 -0.7487 -1.2532
17639SOL    HW254359   4.020   7.664   4.490 -1.1479  0.4786  2.2658
17640SOL     OW54360   0.045   7.411  12.082 -0.4183  0.6719 -0.4459
17640SOL    HW154361   0.136   7.417  12.111 -0.6281  2.2725  0.0184
17640SOL    HW254362   0.040   7.330  12.032  0.7630 -0.5031  1.2347
17641SOL     OW54363   3.693   1.360   0.662  0.2618 -0.1128 -0.4776
17641SOL    HW154364   3.763   1.327   0.606  1.2230 -0.0894  0.6860
17641SOL    HW254365   3.737   1.414   0.727 -1.0139  1.2381 -0.6877
17642SOL     OW54366   3.457   2.079   8.465  0.0541  0.0872 -0.3747
17642SOL    HW154367   3.539   2.052   8.507  1.8981  3.3226 -1.5679
17642SOL    HW254368   3.401   2.107   8.537  0.5045 -0.7994  0.3478
17643SOL     OW54369   7.611   4.256   6.371  0.0713 -1.1355  0.0913
17643SOL    HW154370   7.621   4.351   6.372 -1.9547 -0.8319  2.8001
17643SOL    HW254371   7.623   4.231   6.280 -0.7962  1.9155 -0.9616
17644SOL     OW54372   7.803   7.736   8.725 -0.4053 -0.3125 -0.3523
17644SOL    HW154373   7.833   7.811   8.777 -1.2678  0.8206 -1.4153
17644SOL    HW254374   7.881   7.706   8.679 -0.2442  0.6213 -0.7206
17645SOL     OW54375   0.336   2.726   4.996  0.2200 -0.2354  0.1558
17645SOL    HW154376   0.290   2.779   4.931  2.1813 -0.4043 -1.4766
17645SOL    HW254377   0.358   2.645   4.950  1.6519 -0.3703  1.0172
17646SOL     OW54378   3.747   7.115  10.342 -0.1929  0.1095 -0.1483
17646SOL    HW154379   3.754   7.199  10.296  1.7752 -0.4720 -0.9885
17646SOL    HW254380   3.670   7.074  10.304 -0.4210  0.9734 -0.6576
17647SOL     OW54381   6.073   1.564   3.713  0.3909 -0.3540  0.2054
17647SOL    HW154382   6.055   1.648   3.755  1.4840 -0.5273  1.0892
17647SOL    HW254383   6.168   1.554   3.720  0.4269 -1.0802 -1.0311
17648SOL     OW54384   1.956   6.642   0.868  0.0052 -0.0173  0.2820
17648SOL    HW154385   1.972   6.603   0.782 -0.3237 -0.1535  0.2847
17648SOL    HW254386   1.985   6.576   0.930 -3.4069 -1.6213  0.3780
17649SOL     OW54387   0.732   5.992   3.786  0.0555  0.6601 -0.1474
17649SOL    HW154388   0.646   5.975   3.747 -0.8499 -0.1669  2.0658
17649SOL    HW254389   0.713   6.046   3.863  1.5454  0.5316  0.3368
17650SOL     OW54390   5.407   1.338   3.459  0.0389  0.4042 -0.1826
17650SOL    HW154391   5.463   1.415   3.450 -1.9510  1.7560 -2.0543
17650SOL    HW254392   5.446   1.273   3.400  2.9423 -0.9823  2.9317
17651SOL     OW54393   0.852   1.564   2.438 -0.1371 -0.4338 -0.3618
17651SOL    HW154394   0.820   1.611   2.515 -3.9205 -0.3470 -1.7696
17651SOL    HW254395   0.935   1.607   2.416 -0.2561  1.2576  2.1102
17652SOL     OW54396   1.383   0.094   3.647  0.2411 -0.1015  0.1552
17652SOL    HW154397   1.388   0.149   3.569  0.2349 -0.1334  0.1320
17652SOL    HW254398   1.367   0.155   3.719 -2.2261 -0.2573 -0.1682
17653SOL     OW54399   1.060   1.862   8.158  0.0306  0.2653  0.7467
17653SOL    HW154400   1.075   1.957   8.155 -0.2575  0.3319  1.4068
17653SOL    HW254401   0.966   1.852   8.144  0.1679  0.0278 -0.0643
17654SOL     OW54402   5.409   1.542   1.961  0.0317  0.2910  0.9812
17654SOL    HW154403   5.330   1.488   1.960  0.4149 -0.2753  0.6338
17654SOL    HW254404   5.458   1.511   2.037 -0.0910  0.6591  1.2121
17655SOL     OW54405   7.909   6.927  12.127 -0.3874 -0.3247 -0.5281
17655SOL    HW154406   7.963   6.932  12.048 -2.4369  1.7813 -1.8830
17655SOL    HW254407   7.945   6.995  12.184 -2.0014  1.6701 -1.7733
17656SOL     OW54408   2.080   3.644   7.823 -0.5248 -0.4503 -0.5842
17656SOL    HW154409   2.057   3.647   7.730  1.0226 -0.6477 -1.0020
17656SOL    HW254410   2.055   3.731   7.856 -2.2115 -0.7868 -0.8666
17657SOL     OW54411   5.763   5.492   9.877  0.0595  0.2244 -0.5521
17657SOL    HW154412   5.746   5.586   9.879  0.4467  0.2884 -0.0915
17657SOL    HW254413   5.756   5.464   9.969  0.8986 -0.0204 -0.5551
17658SOL     OW54414   5.802   0.847   3.129 -0.1104 -0.0231  0.2779
17658SOL    HW154415   5.793   0.866   3.222  2.3162 -2.0926  1.0494
17658SOL    HW254416   5.805   0.933   3.087 -2.5863  0.9561  1.8502
17659SOL     OW54417   7.758   1.880   5.622 -0.6551 -0.3641 -0.4197
17659SOL    HW154418   7.681   1.864   5.678  1.3669 -0.2967  2.6235
17659SOL    HW254419   7.783   1.970   5.643  0.1449 -0.3183 -1.5227
17660SOL     OW54420   5.771   4.255   3.790  0.5739  0.0663  0.2426
17660SOL    HW154421   5.700   4.192   3.784 -0.2842  0.8153  1.8724
17660SOL    HW254422   5.846   4.204   3.822 -0.0705 -0.1909  1.4168
17661SOL     OW54423   0.849   3.894   4.414  0.0078 -0.3925  0.0469
17661SOL    HW154424   0.760   3.884   4.447 -0.2181 -1.6789 -0.8690
17661SOL    HW254425   0.900   3.923   4.489 -0.8133 -1.5912  1.1051
17662SOL     OW54426   3.521   3.209  10.984  0.4751  0.7080 -0.1833
17662SOL    HW154427   3.488   3.276  10.924  0.8182 -1.0886 -2.5119
17662SOL    HW254428   3.453   3.142  10.984  0.2982  0.8301  1.8308
17663SOL     OW54429   7.328   5.503   5.760  0.1641 -0.4589 -0.4848
17663SOL    HW154430   7.240   5.470   5.741 -0.1137 -0.8067  1.2488
17663SOL    HW254431   7.387   5.437   5.721 -0.3797 -2.6048  2.0211
17664SOL     OW54432   6.675   4.376   7.657  0.3415  0.0999 -0.3862
17664SOL    HW154433   6.723   4.298   7.629 -1.0196 -0.7688 -0.4354
17664SOL    HW254434   6.584   4.358   7.632 -0.4577  0.5592  1.9124
17665SOL     OW54435   1.636   6.196   5.023 -0.2836 -0.3484  0.9048
17665SOL    HW154436   1.708   6.134   5.013  1.2016  1.4461 -0.0427
17665SOL    HW254437   1.612   6.189   5.116  0.5516 -1.5456  1.0569
17666SOL     OW54438   0.685   0.195   8.086  0.6397  0.5776  0.8930
17666SOL    HW154439   0.618   0.234   8.141 -0.3250  0.7382 -0.3607
17666SOL    HW254440   0.645   0.189   7.999  2.2226  0.6266  0.1225
17667SOL     OW54441   4.585   3.678  11.530 -0.2741 -0.0295 -0.3443
17667SOL    HW154442   4.581   3.739  11.604  1.7624  0.9126 -0.9404
17667SOL    HW254443   4.555   3.730  11.455  0.3306 -0.1315 -0.6540
17668SOL     OW54444   4.335   0.830   5.904  0.7402 -0.2425  0.2728
17668SOL    HW154445   4.347   0.739   5.929  0.6955  0.3047  2.5019
17668SOL    HW254446   4.423   0.865   5.893  0.7818 -0.2843  0.4829
17669SOL     OW54447   5.771   1.116   7.131 -0.0424 -0.0401  0.0288
17669SOL    HW154448   5.788   1.209   7.117  0.1628  0.0942  1.1007
17669SOL    HW254449   5.853   1.073   7.106 -0.4253 -0.0305 -1.3118
17670SOL     OW54450   7.739   4.378   0.580  0.1618  0.3311 -0.2324
17670SOL    HW154451   7.671   4.313   0.591  0.8087 -0.4012 -0.4885
17670SOL    HW254452   7.696   4.450   0.533 -0.7606  0.4589  0.7682
17671SOL     OW54453   7.696   3.444   2.698  0.0616 -0.3488 -0.0630
17671SOL    HW154454   7.782   3.451   2.656  0.6740 -2.2341  0.7515
17671SOL    HW254455   7.671   3.534   2.716  1.6125  0.2835 -0.8349
17672SOL     OW54456   2.819   0.001   9.601  0.0305  0.2957  0.1925
17672SOL    HW154457   2.909   0.016   9.574  0.9795  2.0857  3.7328
17672SOL    HW254458   2.814   0.037   9.690 -3.6845 -1.4388  0.8952
17673SOL     OW54459   7.382   0.783   0.110  0.0622 -0.6517  0.5503
17673SOL    HW154460   7.376   0.753   0.200  1.7520 -0.5076  0.7499
17673SOL    HW254461   7.428   0.712   0.064 -0.8628 -0.7657 -0.2358
17674SOL     OW54462   0.053   6.747   2.239  0.6351  0.4615 -0.6933
17674SOL    HW154463   0.083   6.836   2.256 -0.0277  0.7321 -0.9039
17674SOL    HW254464   0.053   6.705   2.325  0.8787  0.6864 -0.5833
17675SOL     OW54465   3.510   1.783   7.174 -0.2062 -0.4655  0.2035
17675SOL    HW154466   3.436   1.776   7.113  0.0750  0.8705 -0.3200
17675SOL    HW254467   3.490   1.859   7.228  2.0056  1.6775 -1.7527
17676SOL     OW54468   5.108   6.355  11.002  0.1744 -0.1278  0.2435
17676SOL    HW154469   5.087   6.269  10.966  0.9047 -0.6453  1.0081
17676SOL    HW254470   5.193   6.377  10.962 -0.0716  0.3017 -0.0497
17677SOL     OW54471   4.635   6.959  12.178  0.3331 -0.5100  0.2393
17677SOL    HW154472   4.610   6.891  12.241  1.7018 -0.0671  1.3199
17677SOL    HW254473   4.567   7.026  12.186 -0.0618 -0.9365  0.4885
17678SOL     OW54474   3.107   5.886   0.765 -0.3575 -0.0990 -0.1043
17678SOL    HW154475   3.123   5.902   0.672  0.5426  1.1497  0.2329
17678SOL    HW254476   3.182   5.833   0.793  1.2810  2.3976  0.6017
17679SOL     OW54477   4.069   1.755   4.729 -0.6284 -0.0431 -0.7575
17679SOL    HW154478   4.133   1.814   4.770 -2.0997  1.2048 -0.1489
17679SOL    HW254479   4.120   1.703   4.667  1.2186 -0.1117  0.7299
17680SOL     OW54480   3.797   1.659  10.804  0.1765 -0.6399 -0.2102
17680SOL    HW154481   3.776   1.735  10.750  0.0059 -0.6185 -0.1137
17680SOL    HW254482   3.890   1.670  10.826 -0.0552 -0.0061  0.5078
17681SOL     OW54483   0.133   7.775   8.610  0.5140  0.5134  0.4338
17681SOL    HW154484   0.095   7.716   8.545  0.4514  0.1658  0.7817
17681SOL    HW254485   0.218   7.736   8.632  0.7271  0.8601  0.2468
17682SOL     OW54486   4.704   5.558  12.089 -0.2134 -0.2694 -0.4522
17682SOL    HW154487   4.726   5.599  12.173  1.3139  0.2075 -1.0633
17682SOL    HW254488   4.787   5.529  12.053 -0.7710 -0.0384 -2.0289
17683SOL     OW54489   3.802   2.377  10.227  0.3980  0.8281  0.2329
17683SOL    HW154490   3.823   2.470  10.217  0.4224  1.2386  3.2800
17683SOL    HW254491   3.872   2.343  10.283 -1.6756 -0.0542  2.4582
17684SOL     OW54492   7.793   1.884   1.143  0.1292 -0.0603  0.4436
17684SOL    HW154493   7.866   1.822   1.143  1.6100  1.5851  1.8453
17684SOL    HW254494   7.808   1.939   1.220 -1.1830  1.9770 -0.6641
17685SOL     OW54495   4.541   6.021   2.934 -0.0729 -0.2934  0.2493
17685SOL    HW154496   4.511   6.110   2.947  0.9692 -0.0954  1.5344
17685SOL    HW254497   4.469   5.977   2.888 -0.6697  1.1398 -0.2342
17686SOL     OW54498   3.165   2.588   2.368 -0.0095  0.0085  0.2411
17686SOL    HW154499   3.226   2.515   2.382 -0.9392 -0.8592 -0.1282
17686SOL    HW254500   3.115   2.563   2.291  0.3693  1.5475 -0.5306
17687SOL     OW54501   5.250   5.235   8.136  0.2521  0.5057  0.3372
17687SOL    HW154502   5.192   5.282   8.076  0.1431  0.7175  0.6072
17687SOL    HW254503   5.195   5.216   8.212  0.8031  1.6249  1.0470
17688SOL     OW54504   2.822   0.683  11.903  0.3135 -0.3759  0.0605
17688SOL    HW154505   2.839   0.726  11.819  1.3550  3.9888  2.1862
17688SOL    HW254506   2.742   0.724  11.936 -0.5028 -2.5246  0.9552
17689SOL     OW54507   0.974   1.061   2.852 -0.0901  0.4076  0.5407
17689SOL    HW154508   0.916   1.115   2.907  1.4631  0.9398  1.7278
17689SOL    HW254509   0.947   1.080   2.763 -1.2061  1.2582  1.0371
17690SOL     OW54510   2.256   0.780  11.974 -0.8007 -0.0729 -0.3945
17690SOL    HW154511   2.285   0.721  11.905  0.2606 -0.7169  0.5715
17690SOL    HW254512   2.263   0.728  12.054 -0.8031  1.0622  0.3595
17691SOL     OW54513   5.117   4.609   0.549  0.0147 -0.0446  0.9018
17691SOL    HW154514   5.076   4.523   0.552  0.6108 -0.3216  1.2171
17691SOL    HW254515   5.209   4.593   0.571  0.6298  0.3692 -1.1534
17692SOL     OW54516   4.429   4.464  11.829  0.5153 -0.0299 -0.2291
17692SOL    HW154517   4.389   4.442  11.745  0.8427 -0.1739 -0.3449
17692SOL    HW254518   4.519   4.488  11.808  0.0303  2.0758 -0.2192
17693SOL     OW54519   0.102   6.701   0.275 -0.2533 -0.0557 -0.2641
17693SOL    HW154520   0.044   6.772   0.249  0.0952  0.4018  0.1789
17693SOL    HW254521   0.138   6.729   0.359 -0.8489 -1.2011  0.3972
17694SOL     OW54522   5.633   5.011   9.072 -0.1051  0.0735  0.4224
17694SOL    HW154523   5.576   5.076   9.031 -2.5722 -2.3744 -0.3500
17694SOL    HW254524   5.695   4.987   9.004 -1.0734 -0.4492 -0.3056
17695SOL     OW54525   1.939   0.468   6.549 -0.1920 -0.3808 -0.7318
17695SOL    HW154526   2.030   0.439   6.541 -0.7301 -2.0110 -1.4683
17695SOL    HW254527   1.913   0.440   6.637  0.3208  1.0772 -0.0953
17696SOL     OW54528   1.379   2.750   0.360  0.4118  0.5824 -0.1362
17696SOL    HW154529   1.329   2.819   0.403 -1.1642  0.5881 -1.8080
17696SOL    HW254530   1.397   2.785   0.272 -1.0194 -1.3059 -1.2722
17697SOL     OW54531   0.055   4.399  11.380  0.0922  0.8114  0.2180
17697SOL    HW154532   0.142   4.433  11.402  1.1831 -0.9904 -1.0528
17697SOL    HW254533   0.029   4.448  11.302 -0.3825  1.8398  0.9969
17698SOL     OW54534   4.769   0.353   0.961 -0.5312 -0.2404  0.3611
17698SOL    HW154535   4.687   0.334   0.915 -0.4060 -0.7467  0.3423
17698SOL    HW254536   4.837   0.329   0.898 -0.3614  0.7080  0.1607
17699SOL     OW54537   0.139   2.630   2.814 -0.4406 -0.2923 -0.1875
17699SOL    HW154538   0.121   2.673   2.898  0.8979  0.1804 -0.1067
17699SOL    HW254539   0.164   2.702   2.756 -0.9961 -0.6634 -0.8954
17700SOL     OW54540   7.614   3.593  11.076 -0.2665  0.1840  0.1458
17700SOL    HW154541   7.649   3.619  11.162  0.0225  3.2118 -0.7902
17700SOL    HW254542   7.690   3.559  11.029  0.0421  0.5598  0.3647
17701SOL     OW54543   5.576   6.802   8.592  0.3616  0.1755  0.9802
17701SOL    HW154544   5.625   6.732   8.636 -0.1694  0.5528  2.2254
17701SOL    HW254545   5.572   6.873   8.656 -0.2771  0.8347  0.2410
17702SOL     OW54546   5.500   3.398   8.314 -0.4335  0.3983 -0.1710
17702SOL    HW154547   5.588   3.428   8.338 -0.5761  0.1268  0.7633
17702SOL    HW254548   5.504   3.303   8.326 -0.7540  0.3455 -0.4824
17703SOL     OW54549   3.526   1.986   6.273 -0.0252 -0.3120  0.1119
17703SOL    HW154550   3.446   2.014   6.317 -1.4640  0.2332 -2.6416
17703SOL    HW254551   3.574   2.067   6.257 -0.2788 -0.3117 -0.6848
17704SOL     OW54552   6.677   3.606   3.700  0.2442 -0.3589 -1.0350
17704SOL    HW154553   6.604   3.638   3.754  1.8487 -0.8512  1.6278
17704SOL    HW254554   6.636   3.548   3.637 -1.6571 -1.2912  0.9055
17705SOL     OW54555   5.072   5.449   3.478 -0.6394  0.0230 -0.1933
17705SOL    HW154556   5.139   5.417   3.538 -1.6911  0.6937  1.4024
17705SOL    HW254557   5.065   5.543   3.498 -0.7497  0.3533 -1.6559
17706SOL     OW54558   0.374   6.447   5.591  0.1648 -0.3605 -0.1252
17706SOL    HW154559   0.286   6.444   5.629  0.6770 -1.8330  1.0287
17706SOL    HW254560   0.408   6.359   5.603  2.0144  0.3224 -0.0660
17707SOL     OW54561   7.045   7.462   9.394 -0.4485  0.1474  0.7772
17707SOL    HW154562   7.121   7.500   9.438  0.4342 -1.0901  0.3861
17707SOL    HW254563   7.068   7.370   9.382 -1.3373  0.0917 -0.7964
17708SOL     OW54564   2.206   7.197  10.558  0.5177 -0.1678  0.0859
17708SOL    HW154565   2.294   7.224  10.530  0.4279  1.2298  1.0145
17708SOL    HW254566   2.215   7.180  10.651 -0.0762 -0.6169  0.0644
17709SOL     OW54567   4.722   0.546  10.378 -0.2858 -0.2808  0.0983
17709SOL    HW154568   4.726   0.555  10.474 -0.9915 -0.2715  0.1354
17709SOL    HW254569   4.813   0.553  10.349 -0.1116  0.1706  0.7297
17710SOL     OW54570   2.631   6.421  11.767  0.1887 -0.1585 -0.0661
17710SOL    HW154571   2.723   6.395  11.762 -0.3849 -2.1807 -1.1661
17710SOL    HW254572   2.607   6.446  11.678 -0.2363  0.7440  0.2902
17711SOL     OW54573   0.107   2.864   7.999 -0.2787  0.4851 -0.3606
17711SOL    HW154574   0.128   2.925   8.070  0.6740 -0.4153  0.1608
17711SOL    HW254575   0.183   2.866   7.942  0.5446 -1.4813  0.5917
17712SOL     OW54576   4.193   6.967  11.932 -0.2561  0.2661  0.2355
17712SOL    HW154577   4.253   7.040  11.919 -2.0478  1.5273 -1.6234
17712SOL    HW254578   4.234   6.894  11.886  1.8342 -0.1906  2.5936
17713SOL     OW54579   2.059   5.650   6.101  0.2146 -0.2240 -0.2246
17713SOL    HW154580   1.981   5.604   6.069  0.7028 -0.5265 -1.0201
17713SOL    HW254581   2.086   5.704   6.027  0.2312  0.5839  0.3686
17714SOL     OW54582   5.873   4.194   2.070 -0.1978  0.3387  0.0594
17714SOL    HW154583   5.949   4.250   2.057 -0.4974  0.2759 -2.3302
17714SOL    HW254584   5.804   4.233   2.016 -0.5199 -2.0169 -1.3777
17715SOL     OW54585   1.086   3.672   0.610  0.0660  0.1298 -0.2067
17715SOL    HW154586   1.139   3.649   0.533  0.7374  1.5633 -0.1990
17715SOL    HW254587   1.094   3.596   0.668 -0.7612 -1.1473 -1.6862
17716SOL     OW54588   7.585   2.107   7.107  0.4284 -0.5408  0.0528
17716SOL    HW154589   7.648   2.085   7.177 -0.3037 -1.5503  0.4109
17716SOL    HW254590   7.505   2.130   7.154  0.1978 -0.3442 -0.4342
17717SOL     OW54591   6.257   0.233  10.217 -0.2997 -0.1279 -0.3960
17717SOL    HW154592   6.168   0.226  10.249 -0.0593  0.4695  0.4264
17717SOL    HW254593   6.279   0.326  10.224  0.8213 -0.4421  0.6327
17718SOL     OW54594   5.550   7.095   1.175 -0.0809 -0.0486  0.3986
17718SOL    HW154595   5.491   7.089   1.100  1.0832 -0.9545 -0.4758
17718SOL    HW254596   5.582   7.186   1.172  2.0175 -0.7552 -1.8801
17719SOL     OW54597   3.877   5.851   5.254 -0.0132 -0.4616 -0.2541
17719SOL    HW154598   3.859   5.896   5.337  0.9667  2.2844 -1.4028
17719SOL    HW254599   3.951   5.794   5.273 -0.3293 -0.4969  0.9444
17720SOL     OW54600   6.426   2.435  11.187 -0.2216 -0.2853  0.2096
17720SOL    HW154601   6.379   2.513  11.215  2.3752  1.2902  0.5796
17720SOL    HW254602   6.489   2.418  11.258  1.6507 -0.5135 -1.4128
17721SOL     OW54603   2.524   3.004   0.302 -0.3245 -0.4728  0.2873
17721SOL    HW154604   2.593   2.938   0.306  0.9587  0.6517 -1.5536
17721SOL    HW254605   2.545   3.064   0.373  0.1269 -0.5774  0.2465
17722SOL     OW54606   4.540   1.032   1.565 -0.0834  0.3826  0.1888
17722SOL    HW154607   4.445   1.047   1.565  0.1674  2.3735 -1.0738
17722SOL    HW254608   4.577   1.119   1.550  1.8465 -0.7306 -2.0032
17723SOL     OW54609   3.882   0.176   4.979 -0.1959 -0.2176  0.0843
17723SOL    HW154610   3.924   0.155   4.896  0.1897  0.2834  0.1472
17723SOL    HW254611   3.875   0.092   5.025  0.7276 -0.3117  0.0713
17724SOL     OW54612   4.247   4.026   2.428  0.4848 -0.1020 -0.0031
17724SOL    HW154613   4.265   4.116   2.457 -1.9844  0.2395  0.7067
17724SOL    HW254614   4.252   4.031   2.333 -0.0541  0.9381  0.0005
17725SOL     OW54615   3.901   2.681   2.673 -0.2361  0.0288 -0.3639
17725SOL    HW154616   3.990   2.712   2.694 -0.1260 -0.5392  0.0086
17725SOL    HW254617   3.874   2.633   2.750 -0.0787 -1.5443 -1.2596
17726SOL     OW54618   3.406   2.466   9.174 -0.1140 -0.4893 -0.0254
17726SOL    HW154619   3.313   2.468   9.197  0.1762 -0.8729  1.2237
17726SOL    HW254620   3.406   2.464   9.078 -1.3591  1.0027 -0.1011
17727SOL     OW54621   2.877   6.833   9.505  0.1941 -0.1838 -0.8636
17727SOL    HW154622   2.888   6.738   9.510 -4.0931 -0.8336  2.0402
17727SOL    HW254623   2.936   6.868   9.572 -0.0353 -1.1020 -0.1614
17728SOL     OW54624   0.454   1.595   3.010 -0.0488  0.1697  0.1410
17728SOL    HW154625   0.370   1.576   3.052  0.0997  1.6660  1.1805
17728SOL    HW254626   0.434   1.665   2.948  0.6710  1.6481  1.5162
17729SOL     OW54627   7.693   1.613   1.657  0.4501  0.2007 -0.3874
17729SOL    HW154628   7.704   1.584   1.566  2.8152 -0.7953  0.1427
17729SOL    HW254629   7.716   1.537   1.710 -0.6173  0.8514  1.0808
17730SOL     OW54630   0.404   3.104   2.460 -0.2110 -0.3091 -0.2217
17730SOL    HW154631   0.474   3.069   2.515 -1.1122 -2.8546 -0.5674
17730SOL    HW254632   0.439   3.186   2.426  1.6203 -0.2793  1.5720
17731SOL     OW54633   3.959   0.414   1.932 -0.2952  0.1045 -0.3195
17731SOL    HW154634   4.036   0.417   1.989  0.0239  0.9424 -0.7783
17731SOL    HW254635   3.886   0.435   1.990 -0.3906 -2.0359  0.4163
17732SOL     OW54636   0.233   2.094   3.502  0.1652 -0.0783 -0.0165
17732SOL    HW154637   0.320   2.122   3.476  0.2071 -0.8023 -0.6957
17732SOL    HW254638   0.200   2.166   3.556  1.3276  0.0261  0.5854
17733SOL     OW54639   5.260   6.798  10.703 -0.1003 -0.1728  0.3217
17733SOL    HW154640   5.320   6.726  10.719 -0.3299 -0.0508  1.9290
17733SOL    HW254641   5.311   6.860  10.651  0.1634 -1.3720 -0.8950
17734SOL     OW54642   5.444   4.492   0.393 -0.2513 -0.2893 -0.3015
17734SOL    HW154643   5.500   4.415   0.385  1.0147  0.7711 -2.5769
17734SOL    HW254644   5.378   4.480   0.324  0.2027  0.7960 -0.9569
17735SOL     OW54645   1.592   5.117  10.222 -0.2674  0.1955 -0.3596
17735SOL    HW154646   1.620   5.035  10.261 -0.7971  0.7164  1.1874
17735SOL    HW254647   1.531   5.092  10.152  0.0200 -0.7224 -0.2905
17736SOL     OW54648   7.449   6.471   6.443 -0.5040 -0.3123 -0.4710
17736SOL    HW154649   7.530   6.509   6.477 -1.9021  1.8419  0.6586
17736SOL    HW254650   7.472   6.442   6.354  1.5182  0.0704 -0.1253
17737SOL     OW54651   6.063   4.409   8.803 -0.1189 -0.0050  0.1693
17737SOL    HW154652   5.994   4.396   8.868  0.7705 -0.8138  0.9756
17737SOL    HW254653   6.113   4.485   8.835  0.1774 -0.2577  0.3109
17738SOL     OW54654   3.314   4.841   9.212 -0.1952  0.0347 -0.1318
17738SOL    HW154655   3.340   4.754   9.243 -0.3705 -0.3097 -0.9371
17738SOL    HW254656   3.371   4.857   9.137 -0.6662  0.3021 -0.4316
17739SOL     OW54657   1.821   7.088   6.494  0.7049 -0.0642 -0.2118
17739SOL    HW154658   1.734   7.097   6.455 -0.2034 -0.1282  1.6766
17739SOL    HW254659   1.851   7.178   6.507  0.7197 -0.0333 -0.4656
17740SOL     OW54660   1.996   6.938   5.710 -0.6341 -0.0843  0.4894
17740SOL    HW154661   1.993   6.959   5.616 -1.1065 -2.2079 -0.0094
17740SOL    HW254662   2.089   6.921   5.727 -0.5674  0.1571  0.3771
17741SOL     OW54663   7.707   1.191   2.575 -0.2685  0.1663 -0.0033
17741SOL    HW154664   7.801   1.175   2.586  0.2109  0.6865 -2.6487
17741SOL    HW254665   7.692   1.276   2.617  0.5594  0.3232 -0.0033
17742SOL     OW54666   0.104   3.468   0.630 -0.3328  0.1529  0.2424
17742SOL    HW154667   0.137   3.488   0.542 -2.5913 -1.4427 -1.0597
17742SOL    HW254668   0.176   3.492   0.688  1.3152  1.0947 -2.0320
17743SOL     OW54669   6.520   2.910   0.486 -0.1477  0.0147 -0.3840
17743SOL    HW154670   6.508   2.866   0.570 -1.6062 -0.0068 -0.5779
17743SOL    HW254671   6.479   2.996   0.498 -0.6397 -0.1027 -1.1516
17744SOL     OW54672   5.535   7.229  10.290  0.1112  0.0496  0.1520
17744SOL    HW154673   5.526   7.136  10.312  2.2676  0.3589  2.8974
17744SOL    HW254674   5.630   7.245  10.292 -0.0564  1.9534 -2.1948
17745SOL     OW54675   1.934   2.292  12.133  0.1189 -0.6584 -0.4483
17745SOL    HW154676   1.945   2.240  12.213  1.5248 -0.5237 -0.5400
17745SOL    HW254677   1.971   2.378  12.155  1.6966 -0.9946 -1.6101
17746SOL     OW54678   4.562   6.829   1.704 -0.1720 -0.8500  0.1904
17746SOL    HW154679   4.504   6.897   1.673 -0.0467  0.0683  1.8735
17746SOL    HW254680   4.599   6.790   1.625 -3.5606 -1.9777 -0.9941
17747SOL     OW54681   0.279   0.195   6.996  0.0431 -0.1888  0.8091
17747SOL    HW154682   0.239   0.147   7.069 -1.2554 -0.6243 -0.1397
17747SOL    HW254683   0.317   0.273   7.036 -0.0866 -0.7273  2.0322
17748SOL     OW54684   3.607   2.771   8.447 -0.7209  0.4306 -0.0879
17748SOL    HW154685   3.592   2.688   8.402 -2.1957 -0.4190  1.8007
17748SOL    HW254686   3.596   2.750   8.540 -2.4291  2.9672  0.3930
17749SOL     OW54687   5.092   4.593   4.009  0.1494 -0.2870 -0.0439
17749SOL    HW154688   5.178   4.573   4.047  0.5995  1.9621  0.2290
17749SOL    HW254689   5.112   4.625   3.921 -0.5235 -0.7730 -0.3844
17750SOL     OW54690   5.111   6.377   4.150 -0.3263  0.1738  0.7145
17750SOL    HW154691   5.034   6.433   4.158 -0.5685  0.1521 -0.9645
17750SOL    HW254692   5.121   6.364   4.055 -0.8660 -3.4382  1.0387
17751SOL     OW54693   0.755   4.574  10.390 -0.0419 -0.5263 -0.8763
17751SOL    HW154694   0.719   4.529  10.313 -3.4148 -1.3540  0.9865
17751SOL    HW254695   0.748   4.667  10.369 -1.9958 -0.7096 -1.2160
17752SOL     OW54696   4.614   0.910  12.155 -0.0494 -0.5182  0.0719
17752SOL    HW154697   4.603   0.867  12.070  1.9634  2.0627 -1.6458
17752SOL    HW254698   4.695   0.873  12.191 -0.6342 -1.2431  0.6809
17753SOL     OW54699   6.580   2.850  10.440  0.1920 -0.5397 -0.4190
17753SOL    HW154700   6.619   2.922  10.490  0.9799 -0.0208 -1.7459
17753SOL    HW254701   6.654   2.793  10.418 -0.3140 -1.3481 -0.0578
17754SOL     OW54702   5.667   2.601   1.884  1.1066 -0.2877  0.0923
17754SOL    HW154703   5.670   2.610   1.788  0.6746  1.9450  0.2313
17754SOL    HW254704   5.602   2.532   1.899 -0.4444  0.7998 -1.2268
17755SOL     OW54705   2.429   4.838   2.870 -0.1376 -0.1707 -0.1709
17755SOL    HW154706   2.505   4.823   2.813 -0.3105  0.3896 -0.5587
17755SOL    HW254707   2.359   4.864   2.810 -0.3443  0.3438  0.2853
17756SOL     OW54708   0.413   2.399  10.305  0.7015 -0.6130 -0.2595
17756SOL    HW154709   0.447   2.429  10.221  0.8892 -0.5602 -0.1643
17756SOL    HW254710   0.472   2.437  10.370  0.3223 -0.3174 -0.0801
17757SOL     OW54711   5.226   6.885   6.541 -0.0911 -0.3934  0.1720
17757SOL    HW154712   5.144   6.837   6.529  0.1230 -1.0381  1.1447
17757SOL    HW254713   5.223   6.915   6.632  1.1366 -1.2132  0.5117
17758SOL     OW54714   6.388   2.627   5.472  0.0393 -0.2621 -0.2092
17758SOL    HW154715   6.408   2.541   5.434  2.1826 -0.0063  0.2172
17758SOL    HW254716   6.352   2.607   5.559 -2.9893 -0.7774 -1.4435
17759SOL     OW54717   4.613   5.236   9.027  0.2115 -0.6539  0.1278
17759SOL    HW154718   4.706   5.254   9.039  0.4180 -1.7384  0.3141
17759SOL    HW254719   4.571   5.277   9.103  0.5575 -0.3456  0.1583
17760SOL     OW54720   1.365   0.628   5.627 -0.4745  0.6358 -0.0293
17760SOL    HW154721   1.395   0.655   5.541 -1.8803  0.9240 -0.4532
17760SOL    HW254722   1.325   0.542   5.613  0.2916  0.1720  0.5519
17761SOL     OW54723   3.232   1.359   4.496  0.0822 -0.0303  0.3876
17761SOL    HW154724   3.157   1.399   4.541 -0.8140 -0.0373 -1.0550
17761SOL    HW254725   3.304   1.421   4.509 -0.7499  1.0714 -0.0704
17762SOL     OW54726   3.068   3.060  11.744 -0.3055  0.0677 -0.5446
17762SOL    HW154727   3.109   3.142  11.716  0.9226 -0.8229 -1.4731
17762SOL    HW254728   2.979   3.085  11.768 -0.0606  1.6232 -1.1098
17763SOL     OW54729   7.122   5.131   6.322  0.0487  0.1055 -0.4249
17763SOL    HW154730   7.112   5.144   6.228  1.8434  0.0668 -0.6448
17763SOL    HW254731   7.100   5.039   6.336  0.1631  0.0096 -0.8682
17764SOL     OW54732   4.665   6.756   3.198 -0.3175  0.0705 -0.7588
17764SOL    HW154733   4.748   6.800   3.181  0.1267 -1.3432 -2.6069
17764SOL    HW254734   4.624   6.807   3.267  1.5541  1.4953 -0.6332
17765SOL     OW54735   2.686   4.189   4.163 -0.1606  0.0157  0.8877
17765SOL    HW154736   2.690   4.165   4.070  0.7190 -2.0043  1.3942
17765SOL    HW254737   2.600   4.159   4.192 -1.1021  2.0827  0.4215
17766SOL     OW54738   0.748   1.717   6.925  0.3399  0.1206  0.1942
17766SOL    HW154739   0.692   1.755   6.993 -0.2820  1.1807 -0.8735
17766SOL    HW254740   0.687   1.683   6.860  0.7993  3.0921 -1.9945
17767SOL     OW54741   2.046   2.032   0.678 -0.2524  0.0359 -0.4160
17767SOL    HW154742   2.021   2.115   0.719 -1.1817  0.0330 -0.9580
17767SOL    HW254743   2.068   2.056   0.588  1.6353  0.0189 -0.0155
17768SOL     OW54744   6.127   7.263   2.369 -0.4701 -0.1263 -0.3620
17768SOL    HW154745   6.048   7.237   2.416 -0.4038 -0.2917 -0.3403
17768SOL    HW254746   6.107   7.349   2.332  0.0359  0.7655  1.3386
17769SOL     OW54747   3.402   1.356   6.387  1.1568 -0.4277  0.5539
17769SOL    HW154748   3.376   1.342   6.296  1.6961  2.2339 -0.0689
17769SOL    HW254749   3.489   1.316   6.393  0.2619 -2.5473  0.5780
17770SOL     OW54750   0.925   0.275   9.942  0.2776  0.2420  0.0340
17770SOL    HW154751   0.966   0.194   9.973  2.1873  1.2045  0.1597
17770SOL    HW254752   0.955   0.284   9.852  1.0651  1.3831  0.3828
17771SOL     OW54753   5.334   5.597   3.601 -0.5082  0.0895  0.2451
17771SOL    HW154754   5.401   5.545   3.557  2.0695  2.8648  0.5745
17771SOL    HW254755   5.290   5.645   3.530 -0.6567 -0.1124  0.2007
17772SOL     OW54756   0.412   7.281   2.460  0.0724 -0.2561  0.5262
17772SOL    HW154757   0.441   7.275   2.369 -0.2103 -0.9953  0.4829
17772SOL    HW254758   0.393   7.374   2.473  0.1129 -0.1490 -0.1710
17773SOL     OW54759   2.412   4.333   0.668 -0.6700 -0.0035 -0.1799
17773SOL    HW154760   2.504   4.325   0.694 -0.8970 -0.2790  0.5629
17773SOL    HW254761   2.414   4.382   0.586  0.0879  0.6894  0.2419
17774SOL     OW54762   1.481   3.830   1.049 -0.4538  0.4609 -0.0707
17774SOL    HW154763   1.500   3.828   0.955 -1.6415 -0.5609 -0.3241
17774SOL    HW254764   1.562   3.861   1.090  0.1687  0.6628 -1.4072
17775SOL     OW54765   4.476   0.803   9.519 -0.3725 -0.4035  0.5355
17775SOL    HW154766   4.392   0.788   9.476  0.0060 -0.2814 -0.2589
17775SOL    HW254767   4.453   0.841   9.604 -1.0925  0.2549  0.0586
17776SOL     OW54768   0.455   6.504   4.037  0.1730 -0.0053 -0.0217
17776SOL    HW154769   0.379   6.553   4.069  0.2206  0.2514 -0.2959
17776SOL    HW254770   0.422   6.453   3.963 -0.1680 -1.3603  1.0207
17777SOL     OW54771   6.154   2.428   9.234  0.1189  0.0282  0.7391
17777SOL    HW154772   6.136   2.353   9.290  0.7060  0.6713  1.8129
17777SOL    HW254773   6.120   2.503   9.282 -0.8009  0.4241 -0.4909
17778SOL     OW54774   0.746   1.920   4.819 -0.0461  0.4356 -0.2177
17778SOL    HW154775   0.743   1.850   4.884 -3.7713 -1.1749 -1.7993
17778SOL    HW254776   0.788   1.879   4.743  1.7666  1.4237  0.2044
17779SOL     OW54777   7.738   1.936   9.604  0.7066  0.5292 -0.0401
17779SOL    HW154778   7.831   1.949   9.587  1.0655 -0.5920  0.9987
17779SOL    HW254779   7.722   1.980   9.687  0.2317  0.9333 -0.3331
17780SOL     OW54780   7.499   1.485   3.753 -0.2228  0.2242 -0.1041
17780SOL    HW154781   7.556   1.543   3.702 -1.7435 -1.0869 -3.6324
17780SOL    HW254782   7.413   1.526   3.749 -0.3734  0.1832  1.7549
17781SOL     OW54783   4.090   1.546  10.497 -0.2148  0.2293 -0.0631
17781SOL    HW154784   4.012   1.590  10.464 -0.5964 -0.7533 -0.5091
17781SOL    HW254785   4.059   1.496  10.573 -0.7749 -2.6656 -2.0115
17782SOL     OW54786   5.330   7.053   3.616 -0.8549  0.3575 -0.3654
17782SOL    HW154787   5.382   7.132   3.629  0.5454 -0.6212  0.2858
17782SOL    HW254788   5.374   7.007   3.545 -0.7484 -0.5425  0.2635
17783SOL     OW54789   7.847   6.417   9.615  0.2461 -0.1175  0.2120
17783SOL    HW154790   7.751   6.414   9.614  0.2559 -2.7319 -0.2390
17783SOL    HW254791   7.869   6.443   9.704 -0.9286 -1.1686  0.8501
17784SOL     OW54792   6.850   7.616   1.356 -0.4457 -0.0485  0.1549
17784SOL    HW154793   6.826   7.704   1.385 -0.6457  0.5784 -1.7615
17784SOL    HW254794   6.944   7.610   1.375 -0.5081  0.4391  0.6370
17785SOL     OW54795   0.587   5.454   9.848  0.0218 -0.9172 -0.1433
17785SOL    HW154796   0.669   5.409   9.828 -0.4103 -2.1452  0.6944
17785SOL    HW254797   0.578   5.446   9.943 -0.3167  0.5657 -0.0244
17786SOL     OW54798   1.982   7.543   9.605  0.9255  0.1784 -0.2403
17786SOL    HW154799   2.070   7.506   9.613  1.0483  0.5477  0.1807
17786SOL    HW254800   1.997   7.635   9.585  0.6216 -0.0860 -1.8078
17787SOL     OW54801   0.436   0.763   4.798 -0.1776 -0.0949  0.4978
17787SOL    HW154802   0.418   0.742   4.707 -2.7040 -0.5290  1.0098
17787SOL    HW254803   0.530   0.749   4.809 -0.1201 -1.6903 -1.5930
17788SOL     OW54804   7.046   5.389   9.690 -0.0804 -0.3683  0.3398
17788SOL    HW154805   7.081   5.311   9.734  0.0210  0.0806  1.0682
17788SOL    HW254806   7.119   5.450   9.689 -0.8112  0.5866  1.8828
17789SOL     OW54807   2.361   6.476  11.090 -0.1442  0.6954  0.4767
17789SOL    HW154808   2.394   6.436  11.171 -0.5849  2.0870  1.3775
17789SOL    HW254809   2.299   6.412  11.055  0.6575 -0.2795  0.7879
17790SOL     OW54810   5.370   3.898   1.123  0.2485  0.2561  0.8513
17790SOL    HW154811   5.373   3.992   1.106 -0.3250  0.0693 -0.3841
17790SOL    HW254812   5.450   3.879   1.173  1.8460  0.9338 -1.3338
17791SOL     OW54813   1.851   7.074   4.424 -0.5954 -0.1752  0.0879
17791SOL    HW154814   1.924   7.045   4.369 -1.8682 -2.5869 -0.4898
17791SOL    HW254815   1.865   7.030   4.508 -1.1801 -0.3667  0.0883
17792SOL     OW54816   4.820   6.114   3.088 -0.5307  0.0607 -0.3543
17792SOL    HW154817   4.867   6.158   3.160 -1.2829  0.5781 -0.1658
17792SOL    HW254818   4.832   6.172   3.013 -0.2445 -0.1826 -0.4978
17793SOL     OW54819   1.043   2.968   1.727 -0.2445  0.0054 -0.1039
17793SOL    HW154820   1.063   2.881   1.692 -1.9816 -0.3684 -0.2866
17793SOL    HW254821   1.014   3.018   1.650 -0.1821  0.4465  0.1561
17794SOL     OW54822   6.793   3.731   7.807  0.2802  0.3175  0.1792
17794SOL    HW154823   6.795   3.737   7.712 -0.9012  1.2023  0.1876
17794SOL    HW254824   6.730   3.660   7.825  0.1682  0.4473  0.3016
17795SOL     OW54825   0.589   1.102   9.749 -0.0513  0.2773 -0.0128
17795SOL    HW154826   0.588   1.123   9.843 -2.2759 -0.4147  0.1763
17795SOL    HW254827   0.565   1.184   9.706  0.1186  0.3709  0.0676
17796SOL     OW54828   5.228   4.856   0.354 -0.4832 -0.1997 -0.2281
17796SOL    HW154829   5.303   4.804   0.384 -0.7840 -0.3895  0.2060
17796SOL    HW254830   5.205   4.820   0.269 -0.5854 -0.6693 -0.0040
17797SOL     OW54831   7.135   4.297   1.339  0.4766  0.2645  0.1510
17797SOL    HW154832   7.145   4.207   1.371  1.0845  0.1946 -0.2207
17797SOL    HW254833   7.137   4.351   1.419  2.8995  0.1655  0.2293
17798SOL     OW54834   4.268   2.463   7.427  0.4711  0.0534  0.5021
17798SOL    HW154835   4.231   2.436   7.343 -0.4291  0.7942  0.6471
17798SOL    HW254836   4.285   2.381   7.474  1.5650 -0.3905 -0.6336
17799SOL     OW54837   7.199   7.792   6.800  0.1588 -0.0545 -0.0129
17799SOL    HW154838   7.269   7.763   6.859 -0.3159 -0.8583  0.1645
17799SOL    HW254839   7.244   7.847   6.735  1.1890 -1.6421 -0.6974
17800SOL     OW54840   5.596   1.855   6.663 -0.4107 -0.2044  0.4135
17800SOL    HW154841   5.535   1.880   6.594  2.1351  1.2437 -1.4914
17800SOL    HW254842   5.644   1.780   6.627  0.2812 -0.0533  1.0006
17801SOL     OW54843   5.538   7.595   3.487  0.5351 -0.4217 -0.2253
17801SOL    HW154844   5.615   7.549   3.519  0.8314  0.0262 -0.2817
17801SOL    HW254845   5.489   7.619   3.566  0.0645 -1.3484 -0.2180
17802SOL     OW54846   3.881   1.700   5.151 -0.0455  0.2638 -0.9036
17802SOL    HW154847   3.886   1.750   5.232 -0.1373 -0.2605 -0.5691
17802SOL    HW254848   3.842   1.617   5.177 -0.0315  0.0747 -1.4791
17803SOL     OW54849   6.285   5.899  12.373 -0.0906 -0.5059 -0.2465
17803SOL    HW154850   6.279   5.805  12.352 -0.7795 -0.2631 -1.1994
17803SOL    HW254851   6.345   5.934  12.308  1.0133 -0.4532  0.7700
17804SOL     OW54852   4.494   6.693   5.675  0.1937 -0.3353  1.1948
17804SOL    HW154853   4.554   6.621   5.654  2.3646  1.1332  2.0051
17804SOL    HW254854   4.461   6.673   5.762 -0.1836 -0.9218  0.9281
17805SOL     OW54855   4.727   0.616   0.801  0.2670 -0.1818  0.2965
17805SOL    HW154856   4.754   0.688   0.858  0.5287 -0.3803  0.4270
17805SOL    HW254857   4.690   0.551   0.860 -3.5257  1.3766 -0.1308
17806SOL     OW54858   0.956   5.558  10.780  0.0308 -0.5056 -0.3427
17806SOL    HW154859   0.888   5.493  10.792 -1.4143  1.1887  1.0531
17806SOL    HW254860   0.915   5.627  10.728  0.7506  0.4340  0.3011
17807SOL     OW54861   6.365   3.194   3.123  0.6450  0.1151 -0.2196
17807SOL    HW154862   6.308   3.199   3.201  0.8329 -1.0859  0.0096
17807SOL    HW254863   6.315   3.239   3.055 -0.0396  0.1654  0.2986
17808SOL     OW54864   4.101   7.688   5.841  0.4632 -1.5553  0.0255
17808SOL    HW154865   4.044   7.627   5.889  1.8621 -2.1652  0.9563
17808SOL    HW254866   4.187   7.647   5.842  1.6315  0.7652  1.3257
17809SOL     OW54867   1.365   0.167   5.058  0.1374  0.0827  0.3011
17809SOL    HW154868   1.398   0.117   4.983  0.4379 -0.5780  0.8697
17809SOL    HW254869   1.271   0.178   5.039 -0.3131 -2.1739  0.9564
17810SOL     OW54870   4.712   5.272   8.433 -1.0105  0.4903 -0.0605
17810SOL    HW154871   4.689   5.333   8.503  1.6727 -1.0294  2.3573
17810SOL    HW254872   4.666   5.191   8.456  0.1042 -0.1001  0.1525
17811SOL     OW54873   5.044   2.999   8.672  0.2705 -0.4008 -0.1517
17811SOL    HW154874   5.093   2.967   8.748  2.7135 -0.2847 -1.5945
17811SOL    HW254875   5.107   2.999   8.601 -1.5596  0.8994 -1.8704
17812SOL     OW54876   1.298   5.781   7.662 -0.6044  0.1089 -0.1153
17812SOL    HW154877   1.282   5.806   7.571  0.6383 -1.6688 -0.8805
17812SOL    HW254878   1.292   5.685   7.662 -2.3539  0.1309  2.0591
17813SOL     OW54879   2.215   7.612   3.319  0.3614  0.1222 -0.1813
17813SOL    HW154880   2.202   7.547   3.250  1.2760  0.9409 -1.1684
17813SOL    HW254881   2.155   7.586   3.389 -0.3893 -0.8903 -1.1726
17814SOL     OW54882   0.623   4.540   8.603  0.5854  0.4238  0.4727
17814SOL    HW154883   0.643   4.590   8.682 -2.1030 -1.8579  2.7970
17814SOL    HW254884   0.530   4.557   8.587  0.1956 -1.9165 -0.0415
17815SOL     OW54885   2.106   6.533   1.898  0.1199  0.2867 -0.2354
17815SOL    HW154886   2.086   6.582   1.978  1.7620  0.1451  0.3093
17815SOL    HW254887   2.047   6.568   1.832  0.7634  2.5583  0.3100
17816SOL     OW54888   7.848   5.269   4.724  0.7610  0.2267 -0.1341
17816SOL    HW154889   7.925   5.237   4.772 -0.0505  1.9437  2.5730
17816SOL    HW254890   7.879   5.349   4.682  0.2410  1.7706  2.2056
17817SOL     OW54891   0.979   0.096  10.964  0.5207  0.0431  0.4668
17817SOL    HW154892   0.915   0.127  11.029 -1.0454 -1.5028 -0.2482
17817SOL    HW254893   1.009   0.175  10.919 -1.3355  0.7795  0.4493
17818SOL     OW54894   4.983   1.086  10.794 -0.3180  0.4553 -0.5379
17818SOL    HW154895   4.903   1.086  10.846  0.1438 -1.0606  0.2365
17818SOL    HW254896   5.032   1.162  10.824 -0.3228 -0.0768  0.8751
17819SOL     OW54897   2.346   3.273   2.281 -0.4696 -0.4802 -0.0271
17819SOL    HW154898   2.309   3.301   2.197 -0.3721  1.4436  0.5239
17819SOL    HW254899   2.300   3.324   2.347  1.0378 -0.2538  0.9166
17820SOL     OW54900   4.344   0.253   0.029 -0.5253  0.3108  1.0100
17820SOL    HW154901   4.313   0.342   0.014  3.1326  1.5772 -0.1310
17820SOL    HW254902   4.389   0.257   0.113  0.9971  0.0306  0.2464
17821SOL     OW54903   6.469   4.640  11.825  0.5708  0.1471  0.6132
17821SOL    HW154904   6.497   4.663  11.914 -0.2769  1.8509  0.4803
17821SOL    HW254905   6.495   4.715  11.772 -0.4896 -0.0842 -0.2646
17822SOL     OW54906   4.837   7.229   9.101  0.0192 -0.2624 -0.7295
17822SOL    HW154907   4.810   7.153   9.152  1.5125 -0.3304  0.0001
17822SOL    HW254908   4.923   7.206   9.067  0.8332  1.3709  0.1162
17823SOL     OW54909   4.634   7.030  10.695  0.2814  0.1057 -0.1895
17823SOL    HW154910   4.633   7.125  10.704  0.4811  0.0239  0.8505
17823SOL    HW254911   4.695   7.000  10.764  1.7381 -0.6466 -1.7246
17824SOL     OW54912   2.394   6.065   2.876  0.3579  0.1156  0.4194
17824SOL    HW154913   2.436   6.015   2.807  1.0535 -2.3186  2.4552
17824SOL    HW254914   2.320   6.109   2.833  0.6529 -1.4047 -1.7992
17825SOL     OW54915   1.141   7.883   9.605 -0.3174 -0.1913 -0.1373
17825SOL    HW154916   1.141   7.846   9.517  0.2292  0.5878 -0.4778
17825SOL    HW254917   1.050   7.881   9.633 -0.5095 -0.3209 -0.7676
17826SOL     OW54918   0.715   7.341   5.582 -0.3103  0.1407  0.1523
17826SOL    HW154919   0.725   7.436   5.592  0.3071  0.0207  0.7153
17826SOL    HW254920   0.691   7.310   5.669  0.9177 -0.3866  0.3196
17827SOL     OW54921   5.627   6.753   2.866 -0.1472 -0.2398  0.1313
17827SOL    HW154922   5.647   6.803   2.787  0.7289  0.4556  0.7719
17827SOL    HW254923   5.548   6.703   2.843  0.1213 -0.1026 -1.1900
17828SOL     OW54924   5.385   3.542   0.911 -0.3813  0.3829 -0.0178
17828SOL    HW154925   5.342   3.560   0.995 -0.1469  0.0894  0.1653
17828SOL    HW254926   5.346   3.459   0.882 -2.3930  1.7495 -1.4679
17829SOL     OW54927   6.856   5.260   3.340 -0.6858  0.0379  0.4484
17829SOL    HW154928   6.823   5.226   3.423 -2.4443  0.4114 -0.0377
17829SOL    HW254929   6.803   5.216   3.274  0.1266  0.3495 -0.4298
17830SOL     OW54930   7.744   7.176   5.039  0.3061 -0.2522  0.2028
17830SOL    HW154931   7.773   7.210   4.954  0.3215  0.0677  0.3389
17830SOL    HW254932   7.771   7.084   5.037 -1.1905 -0.7105 -0.8300
17831SOL     OW54933   7.217   5.405   6.670 -0.3226 -0.0880 -0.7023
17831SOL    HW154934   7.298   5.358   6.649 -0.2983 -0.4774  0.2096
17831SOL    HW254935   7.148   5.342   6.652 -0.3474 -0.1679 -0.3237
17832SOL     OW54936   6.410   5.275   0.480 -0.0729  0.7215 -0.7854
17832SOL    HW154937   6.461   5.299   0.402 -1.5599  1.2903 -1.6135
17832SOL    HW254938   6.363   5.196   0.454  0.0514  0.4322 -0.1579
17833SOL     OW54939   7.048   6.974   4.736  0.2916 -0.3623  0.5904
17833SOL    HW154940   7.087   6.968   4.649  0.1015  1.4524  0.3350
17833SOL    HW254941   7.115   6.939   4.795  0.3818 -1.6883 -0.2827
17834SOL     OW54942   3.360   6.624   5.378  0.2469 -0.0314 -0.0086
17834SOL    HW154943   3.301   6.692   5.347  1.7604  1.2604 -0.1867
17834SOL    HW254944   3.366   6.638   5.472  2.2671  1.5655 -0.3182
17835SOL     OW54945   4.216   4.017   0.053  0.2159 -0.2223  0.1914
17835SOL    HW154946   4.165   4.024  -0.027  1.6088  1.8386 -0.5926
17835SOL    HW254947   4.200   4.099   0.099  2.6137  0.4202  0.0033
17836SOL     OW54948   1.495   2.877   6.683 -0.4635 -0.4252 -0.4047
17836SOL    HW154949   1.420   2.931   6.659  0.2939  0.3267 -1.1426
17836SOL    HW254950   1.460   2.814   6.746 -1.5583  0.3551 -0.2066
17837SOL     OW54951   2.640   7.497   6.572 -0.0344 -0.4753 -0.6690
17837SOL    HW154952   2.601   7.583   6.556 -0.0397 -0.4764 -0.6622
17837SOL    HW254953   2.569   7.445   6.610  0.3911  0.0059  0.8625
17838SOL     OW54954   3.586   6.596   5.727  0.5994 -0.1423 -0.1923
17838SOL    HW154955   3.538   6.678   5.718  1.2133  0.1664 -0.6536
17838SOL    HW254956   3.677   6.619   5.715  0.6760 -1.1200 -1.7992
17839SOL     OW54957   0.436   3.883   8.908 -0.3229 -0.7200  0.3908
17839SOL    HW154958   0.428   3.846   8.996 -0.9834 -1.2534  0.1085
17839SOL    HW254959   0.385   3.964   8.911  1.3237  0.3442  1.0803
17840SOL     OW54960   3.049   6.361   5.710  0.5060 -0.2510 -0.2115
17840SOL    HW154961   2.994   6.363   5.788  0.7134 -0.6452 -0.0542
17840SOL    HW254962   3.130   6.405   5.736  0.1853  0.5271 -0.5089
17841SOL     OW54963   5.917   4.523   3.156 -0.7854 -0.0796  0.5583
17841SOL    HW154964   5.878   4.610   3.164  0.3932  0.5534 -0.3774
17841SOL    HW254965   5.925   4.508   3.062 -0.9282 -1.1828  0.7077
17842SOL     OW54966   6.717   1.361  10.130  0.4025 -0.4526 -0.7558
17842SOL    HW154967   6.641   1.417  10.142  0.9580  0.1116  0.3058
17842SOL    HW254968   6.727   1.354  10.035  0.2907  1.2568 -0.9367
17843SOL     OW54969   5.625   5.625   3.242  0.2876  0.6295  0.4309
17843SOL    HW154970   5.546   5.676   3.227 -0.0920  0.4839  1.7928
17843SOL    HW254971   5.674   5.631   3.160 -1.2669  0.4562 -0.5387
17844SOL     OW54972   0.849   5.654   0.582 -0.4834 -0.1940 -0.0813
17844SOL    HW154973   0.779   5.640   0.518  0.7602 -3.4787 -0.8775
17844SOL    HW254974   0.829   5.593   0.653 -0.9351  2.2400  2.0676
17845SOL     OW54975   3.727   1.807   5.953  0.4532 -0.1784  0.1373
17845SOL    HW154976   3.784   1.875   5.917  0.8364  0.8820  2.5446
17845SOL    HW254977   3.638   1.840   5.938  0.3532 -1.6483 -3.2639
17846SOL     OW54978   1.444   7.289   0.157 -0.3663  0.3476  0.2343
17846SOL    HW154979   1.532   7.254   0.172 -1.5194 -2.9315  0.2603
17846SOL    HW254980   1.451   7.337   0.075  1.3745 -0.1689  0.0354
17847SOL     OW54981   4.525   1.254   5.780 -0.2944 -0.4053 -0.0850
17847SOL    HW154982   4.603   1.200   5.783 -0.2927 -0.4866 -1.1070
17847SOL    HW254983   4.523   1.300   5.864  0.5884 -0.7603  0.1315
17848SOL     OW54984   5.038   7.004  11.615 -0.2839 -0.1292  0.4144
17848SOL    HW154985   4.981   7.033  11.686  0.7583 -1.4444  1.8649
17848SOL    HW254986   5.106   7.072  11.610 -0.3847 -0.0075  0.6572
17849SOL     OW54987   6.457   3.754   0.354 -0.2057  0.3615  0.2965
17849SOL    HW154988   6.383   3.701   0.326 -0.6889  0.4251  1.4073
17849SOL    HW254989   6.531   3.693   0.361  0.2745  0.5465 -2.2656
17850SOL     OW54990   5.817   3.404   2.743  0.0065 -0.1527 -0.0179
17850SOL    HW154991   5.779   3.478   2.697  0.4270  0.6957  0.9483
17850SOL    HW254992   5.878   3.443   2.805  0.6532 -1.3449  0.1343
17851SOL     OW54993   0.810   6.868   3.042 -0.3538  0.2306 -0.2631
17851SOL    HW154994   0.859   6.810   3.101  0.1225  0.1741 -0.7111
17851SOL    HW254995   0.846   6.850   2.955  0.1305  1.5438 -0.3485
17852SOL     OW54996   1.185   5.649   6.619 -0.9549  0.2108 -0.5673
17852SOL    HW154997   1.228   5.703   6.685  0.5564 -0.9182 -0.5720
17852SOL    HW254998   1.133   5.710   6.567  0.1191  1.5415 -0.1273
17853SOL     OW54999   5.951   0.069  11.445 -0.2215  0.0413 -0.0702
17853SOL    HW155000   5.873   0.125  11.447  1.1449  2.0087  1.3389
17853SOL    HW255001   5.943   0.022  11.362 -3.2837 -0.4508  0.3840
17854SOL     OW55002   0.193   2.733   5.445  0.4680  0.0077  0.2122
17854SOL    HW155003   0.220   2.824   5.432  1.2701 -0.2389  0.0658
17854SOL    HW255004   0.133   2.715   5.373 -1.2737  1.0056  1.3542
17855SOL     OW55005   5.366   1.816  11.867 -0.1208 -0.3595 -0.2630
17855SOL    HW155006   5.285   1.766  11.865  0.7469 -1.8543  0.6157
17855SOL    HW255007   5.429   1.762  11.820  0.6477  0.2830 -0.0024
17856SOL     OW55008   3.755   3.509   1.893 -0.3391  0.1945  0.2254
17856SOL    HW155009   3.772   3.595   1.855 -1.2577  1.2913  2.1485
17856SOL    HW255010   3.758   3.449   1.819 -2.0874  2.1897 -1.5931
17857SOL     OW55011   0.497   1.565   5.697  0.2121 -0.2152 -0.3519
17857SOL    HW155012   0.467   1.475   5.710 -0.9976  0.5053  2.4148
17857SOL    HW255013   0.451   1.594   5.617 -1.1609 -1.3379 -0.0022
17858SOL     OW55014   6.308   2.536   5.715 -0.1371 -0.3388 -0.3071
17858SOL    HW155015   6.220   2.559   5.743  0.2314  0.1204  0.5213
17858SOL    HW255016   6.342   2.481   5.786  0.9747  1.2186  0.4349
17859SOL     OW55017   1.854   6.664   7.289  0.0217 -0.3174  0.1295
17859SOL    HW155018   1.932   6.668   7.345  0.5360 -0.0524 -0.5866
17859SOL    HW255019   1.791   6.612   7.339  0.4984 -0.1573  0.9100
17860SOL     OW55020   1.614   2.957   3.748 -0.3067  0.1507  0.5682
17860SOL    HW155021   1.694   2.968   3.799 -1.2246  4.3547  1.4467
17860SOL    HW255022   1.637   2.989   3.660 -0.8311  0.6370  0.6089
17861SOL     OW55023   1.331   4.206   6.137  0.3608 -0.1483 -0.2438
17861SOL    HW155024   1.418   4.238   6.114 -0.2487  0.7776 -1.3389
17861SOL    HW255025   1.312   4.138   6.072 -0.2064  0.4945 -0.7723
17862SOL     OW55026   3.523   2.811   3.672 -0.5102  0.6743  0.3122
17862SOL    HW155027   3.618   2.809   3.673 -0.4768  0.5882 -1.0572
17862SOL    HW255028   3.500   2.835   3.582 -1.7859 -2.4869 -0.3727
17863SOL     OW55029   6.414   6.282   7.715  0.5916  0.1427  0.5392
17863SOL    HW155030   6.414   6.216   7.646 -0.0581  1.8032 -1.1426
17863SOL    HW255031   6.498   6.272   7.759  0.1555 -2.3514  0.9603
17864SOL     OW55032   6.352   2.293   5.878  0.1170  0.6716  0.5752
17864SOL    HW155033   6.373   2.217   5.933 -2.8545  0.1066  1.1464
17864SOL    HW255034   6.291   2.258   5.812 -0.0204  2.2500 -0.1777
17865SOL     OW55035   2.054   0.864   3.836 -0.6461 -0.2555 -0.4102
17865SOL    HW155036   1.985   0.929   3.843 -1.4314 -0.9054 -1.7261
17865SOL    HW255037   2.085   0.871   3.746  0.5736 -0.4137 -0.0237
17866SOL     OW55038   6.925   6.716   5.498 -0.4187  0.5077  0.2851
17866SOL    HW155039   6.878   6.710   5.415 -2.3627  2.3144  1.1841
17866SOL    HW255040   6.860   6.693   5.564  0.1001  2.3799  1.5236
17867SOL     OW55041   4.310   7.512   5.830  0.0752  0.9439  0.4692
17867SOL    HW155042   4.372   7.466   5.774 -0.7246 -0.4427  0.6862
17867SOL    HW255043   4.333   7.485   5.919 -1.0376  0.1163  0.5305
17868SOL     OW55044   5.071   4.303   4.039  0.1931  0.4062  0.3049
17868SOL    HW155045   5.085   4.397   4.036 -1.0273  0.5921 -0.4267
17868SOL    HW255046   4.976   4.292   4.033  0.2938 -0.8645  0.5733
17869SOL     OW55047   2.722   0.519  11.156 -0.3466  0.1165  0.4728
17869SOL    HW155048   2.783   0.484  11.221  0.5438 -0.5310 -0.6813
17869SOL    HW255049   2.765   0.597  11.122 -0.8046  0.4490  0.6450
17870SOL     OW55050   4.557   0.622   7.415 -0.1251 -0.4452  0.0975
17870SOL    HW155051   4.624   0.679   7.452  1.4222 -2.2937  0.3462
17870SOL    HW255052   4.524   0.669   7.338  0.7565  0.9389  0.5386
17871SOL     OW55053   2.624   3.926   4.267 -0.0529  0.9728 -0.1500
17871SOL    HW155054   2.707   3.960   4.302  0.3077  0.8966 -0.9137
17871SOL    HW255055   2.642   3.910   4.174 -1.0279  1.2955 -0.4066
17872SOL     OW55056   6.705   0.247  12.165  0.0626  0.1053  0.2753
17872SOL    HW155057   6.716   0.171  12.223 -2.1086 -0.4855  0.0216
17872SOL    HW255058   6.788   0.293  12.169  1.1882 -1.8856  1.0391
17873SOL     OW55059   1.831   0.803   2.843 -0.4002  0.2125  0.9230
17873SOL    HW155060   1.759   0.797   2.779  0.1893 -0.5273  0.3196
17873SOL    HW255061   1.786   0.812   2.927 -1.2371 -1.3607  0.6794
17874SOL     OW55062   0.933   1.807   9.148  0.4882 -0.3964  1.2423
17874SOL    HW155063   1.014   1.762   9.124  2.1642  2.0666  1.9528
17874SOL    HW255064   0.904   1.760   9.227 -1.0572 -3.7803 -1.0837
17875SOL     OW55065   0.724   0.552   4.089 -0.3799 -0.1549  0.3240
17875SOL    HW155066   0.810   0.512   4.093 -1.5570 -3.1566 -1.2624
17875SOL    HW255067   0.729   0.614   4.016 -0.2767 -2.5635 -1.8460
17876SOL     OW55068   2.117   1.287   5.470 -0.1355  0.3318 -0.2353
17876SOL    HW155069   2.140   1.205   5.516  1.5675 -0.5827 -2.4972
17876SOL    HW255070   2.029   1.272   5.438 -1.4120  1.0251  2.6310
17877SOL     OW55071   0.866   5.139   3.987  0.1557  0.4144 -0.6383
17877SOL    HW155072   0.921   5.208   4.024 -0.3949  0.5481 -0.0315
17877SOL    HW255073   0.778   5.158   4.022 -0.3888  0.5308 -2.0282
17878SOL     OW55074   3.737   4.166  10.767  0.6193 -0.1294 -0.4761
17878SOL    HW155075   3.694   4.082  10.746 -2.8693  1.5204 -0.7528
17878SOL    HW255076   3.707   4.187  10.855  1.2415  0.9472 -0.5069
17879SOL     OW55077   5.926   4.996   0.306 -0.0530  1.1090 -0.3651
17879SOL    HW155078   6.003   4.960   0.262  0.4210 -0.8074  1.8179
17879SOL    HW255079   5.941   5.090   0.308  0.9952  1.0295 -2.1756
17880SOL     OW55080   3.042   5.995   8.971 -0.3649  0.1360 -0.1323
17880SOL    HW155081   3.057   6.053   8.896  0.3957 -0.6396 -0.5957
17880SOL    HW255082   2.949   6.007   8.991 -0.5588  0.4463 -1.1269
17881SOL     OW55083   7.124   4.921   4.539  0.1060  0.4112  0.2498
17881SOL    HW155084   7.180   4.990   4.574 -0.3753  0.1795  1.5386
17881SOL    HW255085   7.091   4.956   4.456  0.8052  1.2372  0.3112
17882SOL     OW55086   3.883   6.795   7.719  0.2603 -0.2217  0.1266
17882SOL    HW155087   3.855   6.830   7.804  0.0823 -0.9841  0.3850
17882SOL    HW255088   3.880   6.700   7.729 -2.7350 -0.4274 -1.6709
17883SOL     OW55089   2.424   4.011   7.307  0.0012  0.1716  0.5291
17883SOL    HW155090   2.429   3.950   7.233 -1.5117 -0.2165  0.6999
17883SOL    HW255091   2.458   3.961   7.381  0.2690  0.0958  0.3581
17884SOL     OW55092   5.384   4.989   6.786  0.2462 -0.1522  0.2878
17884SOL    HW155093   5.408   5.035   6.706 -1.6458 -1.0200 -0.8391
17884SOL    HW255094   5.316   5.043   6.826 -1.3450 -1.4105 -0.5787
17885SOL     OW55095   6.641   2.503  12.170 -0.0766 -0.8560  0.5169
17885SOL    HW155096   6.655   2.415  12.135  1.7656 -0.5036  0.2792
17885SOL    HW255097   6.595   2.549  12.100  0.6806 -1.0952 -0.1530
17886SOL     OW55098   3.338   0.349   0.268 -0.2276 -0.0264 -0.0849
17886SOL    HW155099   3.249   0.360   0.236 -0.1362 -0.2132 -0.4021
17886SOL    HW255100   3.386   0.423   0.230 -0.6181  1.0858  1.4804
17887SOL     OW55101   6.694   1.508  11.369  0.0394  0.1235  0.1027
17887SOL    HW155102   6.707   1.486  11.277 -0.9697 -1.6825  0.3310
17887SOL    HW255103   6.613   1.559  11.370  0.9630  1.6605 -0.1504
17888SOL     OW55104   1.025   2.843   7.860 -0.9748  0.0626 -0.2152
17888SOL    HW155105   1.022   2.858   7.955  0.3391  2.4667 -0.4885
17888SOL    HW255106   1.114   2.812   7.843 -0.2796  2.2892 -0.9306
17889SOL     OW55107   7.167   0.019   5.122 -0.2709  0.0976  0.0326
17889SOL    HW155108   7.111  -0.034   5.064  0.9762 -0.6173 -0.5711
17889SOL    HW255109   7.247  -0.034   5.132 -0.2686  0.4184  2.0508
17890SOL     OW55110   5.854   1.178   9.645 -0.5114 -0.2092 -0.0302
17890SOL    HW155111   5.770   1.205   9.682  0.3035  0.1144  1.6892
17890SOL    HW255112   5.842   1.086   9.625 -1.3750 -0.0928 -0.1137
17891SOL     OW55113   3.527   5.102   0.304  0.9513  0.1127  0.1543
17891SOL    HW155114   3.516   5.063   0.218 -0.6666  3.2370 -1.2097
17891SOL    HW255115   3.444   5.084   0.349  1.1669 -0.0899  0.4834
17892SOL     OW55116   0.783   3.948   7.379  0.0465 -0.0052  0.2216
17892SOL    HW155117   0.689   3.943   7.398  0.2368  0.9975  1.5122
17892SOL    HW255118   0.794   4.032   7.335  0.3066 -0.2886 -0.2699
17893SOL     OW55119   0.968   0.726   5.311 -0.2179  0.5042 -0.1990
17893SOL    HW155120   0.877   0.702   5.297 -0.0166 -1.3552  1.1509
17893SOL    HW255121   1.014   0.690   5.235 -0.3616 -0.5476  0.1883
17894SOL     OW55122   2.690   2.197   5.946  0.1506 -0.3361  0.0556
17894SOL    HW155123   2.735   2.154   5.873  2.5292 -1.3808  1.9527
17894SOL    HW255124   2.757   2.203   6.014 -1.4609  2.1786  1.5633
17895SOL     OW55125   4.663   2.295   3.470  0.2918  0.4877 -0.1286
17895SOL    HW155126   4.597   2.362   3.487 -1.8348 -1.5085 -0.1731
17895SOL    HW255127   4.684   2.306   3.377  2.4177  3.0974  0.5351
17896SOL     OW55128   3.840   2.471   7.642 -0.0822 -0.3336 -0.8044
17896SOL    HW155129   3.919   2.525   7.638 -1.0515  1.3006  0.6102
17896SOL    HW255130   3.846   2.425   7.725 -0.6667 -0.0776 -0.6138
17897SOL     OW55131   3.290   6.463   8.800  0.0100  0.1393 -0.1266
17897SOL    HW155132   3.333   6.414   8.730  1.6501  1.6322 -0.2437
17897SOL    HW255133   3.228   6.520   8.756 -0.6492 -0.5758 -0.1385
17898SOL     OW55134   0.232   2.134   1.762  0.0581 -0.7417 -0.4924
17898SOL    HW155135   0.314   2.171   1.730 -0.7808 -0.3673 -2.3349
17898SOL    HW255136   0.230   2.045   1.726 -0.7949 -0.3920 -1.3654
17899SOL     OW55137   3.078   5.471   4.162  0.2179  0.1189 -0.4717
17899SOL    HW155138   3.133   5.453   4.086 -0.3552 -1.7231 -0.4971
17899SOL    HW255139   2.998   5.508   4.126 -0.7821 -2.3770 -1.0177
17900SOL     OW55140   6.290   6.101   4.039  0.3480 -0.2407  0.2796
17900SOL    HW155141   6.196   6.112   4.054  0.2075 -0.4191 -0.4336
17900SOL    HW255142   6.318   6.185   4.003  0.3151 -0.4207 -0.1779
17901SOL     OW55143   7.327   3.875   3.284 -0.3058 -0.7440  0.1136
17901SOL    HW155144   7.275   3.942   3.240  0.9734 -0.4154 -0.9550
17901SOL    HW255145   7.366   3.921   3.358 -1.9290 -1.1317  1.2638
17902SOL     OW55146   1.059   4.676  12.305 -0.2407  0.3109  0.2363
17902SOL    HW155147   1.026   4.761  12.276 -1.2090  0.5316  1.8409
17902SOL    HW255148   1.144   4.696  12.345  0.4153  0.2180 -1.0696
17903SOL     OW55149   0.663   0.786   9.433  0.0750 -0.4262 -0.2861
17903SOL    HW155150   0.663   0.789   9.337  2.6765  0.3537 -0.3536
17903SOL    HW255151   0.606   0.859   9.458  0.8377  0.5572 -1.2891
17904SOL     OW55152   0.798   6.743   0.888  0.1201 -0.3309  0.1361
17904SOL    HW155153   0.739   6.684   0.934 -0.2622 -0.5121 -0.5718
17904SOL    HW255154   0.841   6.793   0.957 -0.5555 -0.4912  0.6798
17905SOL     OW55155   1.753   6.473   2.000 -0.0078  0.6564  0.3910
17905SOL    HW155156   1.704   6.492   1.920  0.0988  1.0609  0.4202
17905SOL    HW255157   1.760   6.558   2.044 -0.2953  0.3886  0.9565
17906SOL     OW55158   0.078   5.854   2.217 -0.1372  0.5465  0.6650
17906SOL    HW155159   0.031   5.868   2.299  2.6161 -1.0060  2.6870
17906SOL    HW255160   0.148   5.793   2.240  1.0633  0.4208 -2.7747
17907SOL     OW55161   3.193   3.797  10.784 -0.1869 -0.0743  0.4126
17907SOL    HW155162   3.135   3.840  10.721  0.0511  1.1004  0.9735
17907SOL    HW255163   3.234   3.726  10.734 -0.9173  0.0641 -0.4137
17908SOL     OW55164   6.550   3.497  10.305  0.3802 -0.3896 -0.5037
17908SOL    HW155165   6.493   3.419  10.302  1.5479 -1.3053  0.4405
17908SOL    HW255166   6.590   3.495  10.392 -0.5596  2.0375  0.0617
17909SOL     OW55167   2.323   3.091   9.862  0.1202 -0.1767  0.5136
17909SOL    HW155168   2.304   3.032   9.934 -0.0998  0.3001  0.8565
17909SOL    HW255169   2.280   3.051   9.786  0.4636 -0.7442  0.6155
17910SOL     OW55170   0.761   4.352  10.565 -0.0986 -0.5368  0.2690
17910SOL    HW155171   0.753   4.439  10.526 -1.0219 -0.3628  0.8258
17910SOL    HW255172   0.767   4.293  10.491 -1.4238 -0.1750 -0.1545
17911SOL     OW55173   1.097   0.670  10.728  0.2348 -0.7218 -0.4950
17911SOL    HW155174   1.094   0.590  10.675  0.7461  0.5716 -2.6272
17911SOL    HW255175   1.037   0.730  10.684  3.0121  1.4847 -1.6405
17912SOL     OW55176   2.569   2.715   3.726  0.0439  0.4535  0.2587
17912SOL    HW155177   2.640   2.662   3.762  0.3823  0.5861 -0.2000
17912SOL    HW255178   2.612   2.772   3.662 -0.2908  1.3459  0.8026
17913SOL     OW55179   0.398   6.185   9.758  0.8511 -0.0285 -0.1886
17913SOL    HW155180   0.340   6.188   9.681  0.1757 -1.9735  0.2015
17913SOL    HW255181   0.409   6.277   9.782 -2.7089  0.4455  0.1679
17914SOL     OW55182   2.929   7.405   3.268 -0.3548  0.0564  0.2166
17914SOL    HW155183   2.936   7.314   3.240  0.7185  0.5428 -1.2074
17914SOL    HW255184   2.919   7.400   3.364  0.2547 -1.5241  0.2247
17915SOL     OW55185   0.232   6.933   9.927  0.4195  0.4649  0.1027
17915SOL    HW155186   0.169   6.872   9.964  0.6190  0.7126  0.8657
17915SOL    HW255187   0.199   6.951   9.839 -0.0018 -0.2155  0.1176
17916SOL     OW55188   7.661   1.109  12.091  0.6533  0.1896 -0.0167
17916SOL    HW155189   7.577   1.141  12.057  0.3871  0.6397  1.0063
17916SOL    HW255190   7.649   1.109  12.186  1.3926 -0.9486  0.0911
17917SOL     OW55191   1.099   6.137   2.350 -0.0442  0.3769 -0.2872
17917SOL    HW155192   1.004   6.133   2.359 -0.0491 -1.1376 -0.7376
17917SOL    HW255193   1.117   6.096   2.266  1.0140  0.7290 -0.2477
17918SOL     OW55194   6.424   2.400   4.075 -0.0573  0.3556 -0.8712
17918SOL    HW155195   6.349   2.453   4.047 -1.1701 -0.7507 -0.1042
17918SOL    HW255196   6.412   2.389   4.169  1.7322  1.1177 -0.5243
17919SOL     OW55197   1.765   5.922   2.302 -0.6037 -0.4410 -0.3881
17919SOL    HW155198   1.707   5.853   2.334 -0.4813 -0.3936 -0.0591
17919SOL    HW255199   1.816   5.948   2.379 -1.2197  0.5782 -0.3048
17920SOL     OW55200   4.731   7.201   0.901 -0.3665 -0.3913  0.0379
17920SOL    HW155201   4.771   7.227   0.818  1.4624 -1.3758  0.5772
17920SOL    HW255202   4.683   7.279   0.929  1.8741  1.1699 -0.2273
17921SOL     OW55203   6.355   7.215  10.557  0.4943 -0.0782  0.2772
17921SOL    HW155204   6.403   7.181  10.632  1.3866  1.1547  0.2995
17921SOL    HW255205   6.326   7.137  10.509  3.5043 -0.9291 -0.3477
17922SOL     OW55206   5.219   4.404   1.008  0.5037 -0.2042  0.0603
17922SOL    HW155207   5.309   4.432   0.990  0.3437 -1.1450 -2.5733
17922SOL    HW255208   5.164   4.460   0.954 -0.5026  0.0430  1.2858
17923SOL     OW55209   2.285   0.324   1.223 -0.0845  0.4114 -0.2861
17923SOL    HW155210   2.244   0.324   1.309 -0.0633  1.2850 -0.2711
17923SOL    HW255211   2.252   0.403   1.181 -0.4171 -0.2095 -1.2435
17924SOL     OW55212   3.102   7.653   0.421  0.1635 -0.0766 -0.0806
17924SOL    HW155213   3.034   7.694   0.367  1.6430 -0.1281 -2.1317
17924SOL    HW255214   3.183   7.669   0.372  1.3830 -1.6221  1.3316
17925SOL     OW55215   0.480   7.752   3.364  0.0571  0.7446  0.2751
17925SOL    HW155216   0.516   7.681   3.310  1.4685  1.4542  0.2561
17925SOL    HW255217   0.500   7.832   3.315  1.5861  1.4307  1.9150
17926SOL     OW55218   4.194   7.441   3.272  0.0497  0.1126  0.0452
17926SOL    HW155219   4.275   7.394   3.290  0.9320  1.7235  0.4539
17926SOL    HW255220   4.221   7.531   3.256 -1.5279  0.4067 -1.2606
17927SOL     OW55221   7.226   2.291   8.453 -0.4536 -0.2575  0.8247
17927SOL    HW155222   7.300   2.347   8.476  1.3554 -1.9045 -0.6368
17927SOL    HW255223   7.252   2.204   8.483 -2.3663 -0.6991  1.3375
17928SOL     OW55224   7.198   5.736   3.312  0.0959  0.1446 -0.1166
17928SOL    HW155225   7.282   5.716   3.270  0.8414 -0.0784  1.4205
17928SOL    HW255226   7.199   5.685   3.393 -1.1567  0.8169  0.3443
17929SOL     OW55227   7.847   4.338   4.526  0.4726 -0.2042 -0.3014
17929SOL    HW155228   7.913   4.269   4.518  0.3368 -0.2283 -1.5523
17929SOL    HW255229   7.829   4.363   4.435 -0.8256  0.1928  0.0466
17930SOL     OW55230   3.669   4.762   0.586  0.2788  0.4861  0.0767
17930SOL    HW155231   3.707   4.705   0.653  0.2790 -1.2632 -1.3624
17930SOL    HW255232   3.705   4.730   0.503 -1.5898  1.0394 -1.0005
17931SOL     OW55233   3.358   5.892   3.212  0.3793 -0.1081  0.7401
17931SOL    HW155234   3.438   5.917   3.166 -0.1562  0.7797  0.2589
17931SOL    HW255235   3.296   5.868   3.143 -0.3930  1.1176  0.9680
17932SOL     OW55236   4.281   3.225   1.666 -0.8312  0.4405  0.1056
17932SOL    HW155237   4.365   3.269   1.671 -0.2181 -0.3864 -2.0915
17932SOL    HW255238   4.216   3.295   1.681  0.1813  1.5326 -0.4528
17933SOL     OW55239   4.286   6.329   2.341 -0.1035 -0.2056  0.2075
17933SOL    HW155240   4.367   6.289   2.371 -0.4885 -0.6787  0.6503
17933SOL    HW255241   4.283   6.312   2.247  0.3648 -0.0787  0.1694
17934SOL     OW55242   2.222   0.879   9.200 -0.3339 -0.2247 -0.3638
17934SOL    HW155243   2.162   0.808   9.225  0.2109 -0.0482  1.5870
17934SOL    HW255244   2.177   0.923   9.127 -3.0854  0.4844  1.6020
17935SOL     OW55245   6.449   1.574   6.032 -0.1311  0.5298 -0.1364
17935SOL    HW155246   6.444   1.648   5.971  0.3639 -0.7044 -1.7412
17935SOL    HW255247   6.540   1.576   6.063 -0.3935  1.1811  0.6322
17936SOL     OW55248   3.412   1.395   7.709 -0.3017 -0.2872  0.4451
17936SOL    HW155249   3.479   1.456   7.741 -0.9803 -0.1385  1.6500
17936SOL    HW255250   3.449   1.358   7.630  1.8867 -1.3483  1.8731
17937SOL     OW55251   5.410   2.271   3.861 -0.6040 -0.0046 -0.2946
17937SOL    HW155252   5.451   2.277   3.947  2.2633 -0.4982 -1.4839
17937SOL    HW255253   5.399   2.177   3.845  1.4776 -0.1192 -1.4656
17938SOL     OW55254   2.551   3.391   8.439 -0.5768  0.0371  0.3441
17938SOL    HW155255   2.490   3.353   8.503  0.2015  0.5926  1.4629
17938SOL    HW255256   2.517   3.478   8.421 -0.5864  0.0252  0.3050
17939SOL     OW55257   1.067   0.052   7.928  0.5266 -0.4748 -0.3853
17939SOL    HW155258   1.020  -0.007   7.869  0.0323  1.1632 -1.6988
17939SOL    HW255259   1.023   0.042   8.012 -1.2317 -0.1032 -1.2135
17940SOL     OW55260   6.881   0.511  10.244 -0.1880 -0.2575 -0.5622
17940SOL    HW155261   6.974   0.494  10.256 -0.7843 -2.2376  2.6970
17940SOL    HW255262   6.877   0.584  10.183  3.4342 -0.5346 -1.3383
17941SOL     OW55263   7.330   1.919   1.032 -0.2238 -0.5040  0.0791
17941SOL    HW155264   7.372   1.903   0.947 -0.7323 -1.0601 -0.0695
17941SOL    HW255265   7.365   2.004   1.060  0.2409 -0.4966 -0.5055
17942SOL     OW55266   4.248   2.720  10.074 -0.4706 -0.2050  1.2463
17942SOL    HW155267   4.179   2.661  10.104  0.0119 -1.0983  0.6421
17942SOL    HW255268   4.317   2.662  10.042 -0.0337  0.6842  0.5188
17943SOL     OW55269   4.408   2.012   8.871  0.9197  1.2882  0.1790
17943SOL    HW155270   4.423   1.944   8.805 -0.7630  0.7293  0.3327
17943SOL    HW255271   4.464   2.084   8.843  1.9957  0.2241 -0.5505
17944SOL     OW55272   5.461   5.848   3.680  0.7575  0.7825  0.5886
17944SOL    HW155273   5.529   5.793   3.642 -1.0465 -1.2236 -0.0065
17944SOL    HW255274   5.390   5.787   3.702 -1.6544  2.8939 -0.6635
17945SOL     OW55275   6.115   7.853  12.121  0.5486  0.3901  0.0581
17945SOL    HW155276   6.119   7.853  12.217 -1.6067 -1.3449  0.2225
17945SOL    HW255277   6.099   7.762  12.097  0.4565  0.8768 -1.9393
17946SOL     OW55278   0.477   7.019  11.271 -0.3828  0.6941 -0.1493
17946SOL    HW155279   0.397   6.983  11.233  0.9076 -0.8224 -1.6147
17946SOL    HW255280   0.481   7.108  11.238 -0.5839  0.2076 -1.5710
17947SOL     OW55281   4.218   4.365   9.595 -0.7381  0.1037 -0.0749
17947SOL    HW155282   4.185   4.410   9.673  0.9667 -1.3965  1.6094
17947SOL    HW255283   4.164   4.287   9.589 -0.2786 -0.2379  0.1719
17948SOL     OW55284   2.470   7.805  10.826  0.4254  0.2198  0.6313
17948SOL    HW155285   2.553   7.841  10.858  1.2151 -0.0500 -1.0007
17948SOL    HW255286   2.412   7.881  10.818  0.8885  0.5850  0.7192
17949SOL     OW55287   4.881   7.197  11.390 -0.5912 -0.0809  0.0783
17949SOL    HW155288   4.853   7.116  11.347 -0.1387  0.0734 -0.5289
17949SOL    HW255289   4.973   7.181  11.413  0.1617  0.9946 -1.9606
17950SOL     OW55290   7.757   4.236  10.094  0.5582 -0.6069  0.3800
17950SOL    HW155291   7.679   4.217  10.041  1.7396  0.4715 -1.9284
17950SOL    HW255292   7.829   4.230  10.031  2.0620  0.8361  1.8869
17951SOL     OW55293   0.746   4.235   6.084 -0.1689 -0.1967  0.6270
17951SOL    HW155294   0.735   4.187   6.166 -0.8199  0.7286  1.1010
17951SOL    HW255295   0.832   4.275   6.090 -0.1275 -0.3078  0.7608
17952SOL     OW55296   6.958   7.613   5.243  0.0395  0.5744  0.1259
17952SOL    HW155297   7.014   7.581   5.315  1.3787  1.0729 -0.6548
17952SOL    HW255298   6.891   7.666   5.287  0.9312  1.0102  1.0125
17953SOL     OW55299   3.517   5.790  10.290 -0.4273 -0.2125 -0.3332
17953SOL    HW155300   3.574   5.807  10.215 -2.2108  0.2655 -1.6513
17953SOL    HW255301   3.546   5.851  10.357  2.1408 -1.6051 -0.0332
17954SOL     OW55302   3.216   1.035   7.696  0.2558  0.2211  0.7763
17954SOL    HW155303   3.230   0.952   7.650 -1.1497  0.2459  0.2592
17954SOL    HW255304   3.281   1.034   7.767  0.7769 -0.9590  0.3109
17955SOL     OW55305   4.133   0.686   7.040  0.1087 -0.0195 -0.5475
17955SOL    HW155306   4.106   0.731   6.961  0.1655 -0.7535 -0.9901
17955SOL    HW255307   4.206   0.739   7.074 -0.1625  0.5021 -0.7705
17956SOL     OW55308   6.123   5.436   0.180 -0.2152  0.0114 -0.2240
17956SOL    HW155309   6.122   5.345   0.150  0.4516 -0.1093  0.0869
17956SOL    HW255310   6.120   5.487   0.099 -1.9799 -0.2539 -0.3532
17957SOL     OW55311   2.294   5.360   6.168  0.6628  0.6555 -0.0449
17957SOL    HW155312   2.335   5.407   6.095  1.6279 -2.0894 -1.4262
17957SOL    HW255313   2.363   5.301   6.199 -0.3840  0.3320  1.7965
17958SOL     OW55314   3.863   3.466   5.176  0.5317  0.4115  0.5164
17958SOL    HW155315   3.835   3.411   5.103  2.4442  1.1162 -0.8078
17958SOL    HW255316   3.861   3.408   5.252 -0.2383 -0.6827 -0.3078
17959SOL     OW55317   6.262   4.178  12.289 -0.3743 -0.0429  0.2967
17959SOL    HW155318   6.176   4.199  12.254 -0.2222  0.1386  0.0291
17959SOL    HW255319   6.246   4.154  12.380 -0.8816 -1.2392 -0.0850
17960SOL     OW55320   2.379   3.107   4.202  0.2455  0.0754  0.3678
17960SOL    HW155321   2.413   3.037   4.147  1.4735  0.5873  0.4341
17960SOL    HW255322   2.320   3.156   4.145  0.8707  0.1133 -0.2519
17961SOL     OW55323   1.150   3.502  11.999 -0.3298 -0.1153 -0.1806
17961SOL    HW155324   1.133   3.492  11.905  1.9817  0.2968 -0.6958
17961SOL    HW255325   1.184   3.417  12.027 -0.5263 -0.0804  0.1710
17962SOL     OW55326   1.392   1.014   9.360 -0.1687 -0.0448 -0.2187
17962SOL    HW155327   1.334   1.037   9.287 -3.6567 -3.7430  0.9778
17962SOL    HW255328   1.455   0.953   9.322 -1.2487 -1.0712 -0.4202
17963SOL     OW55329   7.029   2.794  11.532  0.4768 -0.5846  0.1888
17963SOL    HW155330   7.037   2.846  11.452 -0.5268  0.0525  0.4807
17963SOL    HW255331   6.936   2.801  11.556  1.0956  0.8676  2.4695
17964SOL     OW55332   6.941   4.131   9.168 -0.5372 -0.7108  0.2830
17964SOL    HW155333   6.886   4.056   9.192  1.4073 -1.8024  1.5934
17964SOL    HW255334   7.009   4.095   9.112  0.7457 -0.0823  1.3610
17965SOL     OW55335   3.264   7.027  10.202  0.1245 -0.0207  0.8616
17965SOL    HW155336   3.243   7.119  10.222  1.1761  0.0370  1.8206
17965SOL    HW255337   3.191   6.977  10.239 -1.4951  0.4864 -1.3929
17966SOL     OW55338   0.079   6.120  11.801 -0.0756 -0.3719  0.7031
17966SOL    HW155339   0.025   6.050  11.835 -2.1704  0.8630  0.1569
17966SOL    HW255340   0.131   6.150  11.875 -1.4121 -0.4978  1.7140
17967SOL     OW55341   1.509   2.261   5.938 -0.2481 -0.2468 -0.5372
17967SOL    HW155342   1.468   2.220   6.014  1.5756  1.8912  1.7897
17967SOL    HW255343   1.450   2.332   5.914  0.6737  1.1605  1.1120
17968SOL     OW55344   6.691   6.798   2.140 -0.0938  0.3560 -0.5081
17968SOL    HW155345   6.635   6.754   2.204  0.1826 -0.2160 -0.6487
17968SOL    HW255346   6.713   6.881   2.181 -1.5650  0.8837 -0.7349
17969SOL     OW55347   5.695   0.704   3.484  0.4403 -0.3428  0.2488
17969SOL    HW155348   5.686   0.777   3.422 -0.2889 -1.0714 -0.5228
17969SOL    HW255349   5.703   0.626   3.429 -5.3370 -1.7660  0.8476
17970SOL     OW55350   7.070   2.432   3.157 -0.1647  0.1432 -0.3439
17970SOL    HW155351   6.986   2.476   3.142 -0.6241 -0.4119  0.5214
17970SOL    HW255352   7.078   2.428   3.252  1.3931  1.1963 -0.4025
17971SOL     OW55353   4.354   6.668   6.208 -0.2484 -0.3953  0.2423
17971SOL    HW155354   4.302   6.718   6.270 -1.0114  0.1494 -0.8227
17971SOL    HW255355   4.444   6.673   6.243 -0.3297  1.5835  0.2444
17972SOL     OW55356   1.186   6.293   4.397  0.3913  0.5582  0.2187
17972SOL    HW155357   1.226   6.263   4.478 -0.5020  1.9319  1.2052
17972SOL    HW255358   1.234   6.247   4.328  1.3703 -0.3971  1.5032
17973SOL     OW55359   1.535   4.577   3.299  0.4385 -0.5270  0.6984
17973SOL    HW155360   1.526   4.657   3.351  3.8433  0.6795 -0.2689
17973SOL    HW255361   1.546   4.609   3.209  1.9096 -2.0480  0.2960
17974SOL     OW55362   0.903   1.256   6.297  0.5352  0.2286  0.5839
17974SOL    HW155363   0.953   1.261   6.378 -0.2089  1.6297  0.9945
17974SOL    HW255364   0.946   1.187   6.246  2.3306  0.8014  1.2641
17975SOL     OW55365   1.078   0.440   0.237 -0.0285  0.0932 -0.4551
17975SOL    HW155366   1.024   0.361   0.244  0.4128 -0.0927  1.8290
17975SOL    HW255367   1.020   0.505   0.197 -0.7982 -1.0469 -1.2375
17976SOL     OW55368   3.476   6.497   8.285  0.7236  0.5598  0.2633
17976SOL    HW155369   3.532   6.471   8.212  0.8806 -0.7612  0.8327
17976SOL    HW255370   3.433   6.577   8.255  1.2718  0.3917 -1.0153
17977SOL     OW55371   0.278   1.869   4.210 -0.0337  0.0899  0.1003
17977SOL    HW155372   0.372   1.888   4.212 -0.1471  0.5907  1.3917
17977SOL    HW255373   0.252   1.867   4.302 -1.2086 -0.4876 -0.2267
17978SOL     OW55374   2.477   2.204   3.185  0.1774  0.4404 -0.5478
17978SOL    HW155375   2.541   2.144   3.222  0.1771 -0.0470 -1.3118
17978SOL    HW255376   2.394   2.177   3.223  0.2914  0.4524 -0.2940
17979SOL     OW55377   5.362   2.883   4.486  0.6900  0.3963  0.0212
17979SOL    HW155378   5.456   2.866   4.480  0.4233 -1.3282  0.0973
17979SOL    HW255379   5.344   2.884   4.580  0.6548  0.8412  0.0091
17980SOL     OW55380   6.724   0.830  10.633 -0.4467  0.4877  0.6125
17980SOL    HW155381   6.812   0.853  10.604 -0.7153  2.2779  1.0500
17980SOL    HW255382   6.675   0.815  10.552  0.1111  0.0420  0.3510
17981SOL     OW55383   3.762   4.572   7.061  0.0202 -0.0540 -0.2024
17981SOL    HW155384   3.681   4.523   7.074  0.1268 -0.1946 -0.0758
17981SOL    HW255385   3.733   4.655   7.021 -0.1345 -0.3200 -0.6564
17982SOL     OW55386   4.233   5.757  11.859 -0.1669 -0.0310  0.2231
17982SOL    HW155387   4.140   5.753  11.837  0.2503 -3.3631 -1.5818
17982SOL    HW255388   4.256   5.667  11.884  2.6320  0.6318  0.4314
17983SOL     OW55389   0.020   3.511   2.799  0.0718 -0.4007 -0.1849
17983SOL    HW155390   0.044   3.432   2.751  0.6473 -0.1990 -0.2373
17983SOL    HW255391  -0.012   3.479   2.884  2.5595 -0.6344  0.7605
17984SOL     OW55392   5.887   7.173   4.162 -0.0836 -0.3170  0.1755
17984SOL    HW155393   5.898   7.145   4.071  0.3147  2.1194 -0.6124
17984SOL    HW255394   5.975   7.168   4.199 -0.4655 -2.6850  0.9526
17985SOL     OW55395   6.982   3.143   0.542 -0.3135 -0.0124  0.1514
17985SOL    HW155396   6.886   3.149   0.549 -0.4736 -2.0322  0.4009
17985SOL    HW255397   6.997   3.096   0.460  0.3404 -1.4571  1.0505
17986SOL     OW55398   7.765   4.175   1.588  0.0878  0.3923 -0.2117
17986SOL    HW155399   7.771   4.089   1.628 -0.6346  0.1150 -0.6752
17986SOL    HW255400   7.823   4.230   1.640 -1.1011  0.1358  1.4894
17987SOL     OW55401   4.767   5.916   1.266  0.1986 -0.6790 -0.0313
17987SOL    HW155402   4.704   5.962   1.211  0.2167  1.1188  1.3434
17987SOL    HW255403   4.817   5.861   1.205  0.5339  1.5492 -1.9120
17988SOL     OW55404   6.564   1.601   1.162  0.5135 -0.3840  0.3403
17988SOL    HW155405   6.568   1.520   1.213  0.3779 -0.2996  0.4825
17988SOL    HW255406   6.613   1.581   1.082  0.6873 -0.5272  0.4848
17989SOL     OW55407   5.782   7.870  10.034  0.3505  0.1417  0.0705
17989SOL    HW155408   5.742   7.841   9.952  0.7902 -0.4897  0.0802
17989SOL    HW255409   5.746   7.958  10.048  0.0626  0.1437 -0.6538
17990SOL     OW55410   0.903   6.062   6.413 -0.0160 -0.0783  0.0782
17990SOL    HW155411   0.866   6.052   6.325 -0.5438  0.5734  0.2192
17990SOL    HW255412   0.867   6.144   6.445  1.6011  0.6211  0.2131
17991SOL     OW55413   6.402   1.261   6.889 -0.0161  0.3149  0.0995
17991SOL    HW155414   6.426   1.270   6.981  1.1065  0.3816 -0.1854
17991SOL    HW255415   6.307   1.249   6.890 -0.1984  1.6673  1.1729
17992SOL     OW55416   0.556   0.960   6.365 -0.1361 -0.0609  0.0435
17992SOL    HW155417   0.566   1.051   6.336 -1.6008 -0.1676 -0.9302
17992SOL    HW255418   0.475   0.959   6.414  1.4513 -0.2567  2.8624
17993SOL     OW55419   1.489   5.856   8.255  0.3090  0.4430 -0.5468
17993SOL    HW155420   1.435   5.843   8.333  0.9723 -0.2963 -0.1972
17993SOL    HW255421   1.515   5.768   8.229  1.9954  0.8241 -0.2377
17994SOL     OW55422   7.324   1.850   9.590 -0.0519 -0.1287 -0.5532
17994SOL    HW155423   7.358   1.922   9.642  0.5043  0.3130 -1.5053
17994SOL    HW255424   7.248   1.886   9.545  0.2046 -0.1405 -1.0021
17995SOL     OW55425   2.957   6.287   2.197 -0.0882  0.2644 -0.4707
17995SOL    HW155426   3.003   6.335   2.267  1.0571  1.6108 -2.0641
17995SOL    HW255427   2.865   6.311   2.209  0.0941  0.5228  0.5351
17996SOL     OW55428   2.673   6.502   0.999  0.4480  0.1313  0.8120
17996SOL    HW155429   2.696   6.459   1.081  0.3184 -0.0070  0.7772
17996SOL    HW255430   2.605   6.445   0.961  0.3114  0.3395  0.7420
17997SOL     OW55431   2.420   2.014  12.069 -0.1733  0.1546 -0.1846
17997SOL    HW155432   2.464   2.037  11.987  0.0780 -1.0089 -0.3929
17997SOL    HW255433   2.481   1.955  12.113 -1.4918 -1.4836 -0.4592
17998SOL     OW55434   3.780   0.945  11.319  0.5002 -0.1217 -0.3806
17998SOL    HW155435   3.827   0.903  11.247  3.4654 -1.9201  2.3091
17998SOL    HW255436   3.757   0.873  11.378 -0.5042  1.3859  1.1785
17999SOL     OW55437   0.432   0.528   2.154 -0.2341  0.1676  0.1079
17999SOL    HW155438   0.468   0.603   2.107 -0.7480  0.4859  0.2196
17999SOL    HW255439   0.403   0.564   2.238  1.9000 -0.6286  1.2534
18000SOL     OW55440   6.243   6.239  11.966  0.2132 -0.0171  0.3789
18000SOL    HW155441   6.263   6.156  11.923 -0.7753  0.1738 -0.4692
18000SOL    HW255442   6.167   6.273  11.920  0.3994  1.2098  0.9327
18001SOL     OW55443   2.705   2.348   1.386 -0.1153 -0.2884 -0.5238
18001SOL    HW155444   2.666   2.380   1.467 -1.2785 -0.5299 -0.9707
18001SOL    HW255445   2.672   2.408   1.318  0.8804 -0.0572 -0.8146
18002SOL     OW55446   1.450   4.601  10.965 -0.4557  0.1588  0.1579
18002SOL    HW155447   1.439   4.514  10.925 -0.4088  0.8828 -1.5051
18002SOL    HW255448   1.533   4.594  11.012  0.2341 -0.3307 -1.0723
18003SOL     OW55449   4.759   6.677  10.104 -0.1209 -0.1334 -0.1889
18003SOL    HW155450   4.815   6.653  10.178  0.0446 -0.2264 -0.3426
18003SOL    HW255451   4.673   6.693  10.143 -0.5253 -2.0195 -0.1857
18004SOL     OW55452   4.940   4.297   8.525  0.0760 -0.6658 -0.3269
18004SOL    HW155453   4.877   4.334   8.462  0.4230  0.5877  0.0274
18004SOL    HW255454   4.891   4.291   8.607 -0.3069 -2.0804 -0.6409
18005SOL     OW55455   6.510   4.865   1.059 -0.3806  0.0340  0.5947
18005SOL    HW155456   6.508   4.811   0.981 -2.3604  0.6600  0.1410
18005SOL    HW255457   6.529   4.953   1.027  1.7856 -0.1702  1.2018
18006SOL     OW55458   4.474   3.718  11.209 -0.3508  0.4312 -0.5819
18006SOL    HW155459   4.451   3.741  11.119 -1.4765  0.6975 -0.2436
18006SOL    HW255460   4.407   3.654  11.235  0.6554 -0.5454 -0.3195
18007SOL     OW55461   0.204   1.852   2.417  0.1924 -0.1636 -0.2847
18007SOL    HW155462   0.204   1.917   2.348 -0.4415  1.5734  1.2756
18007SOL    HW255463   0.112   1.839   2.438  0.4185  0.7764  1.4689
18008SOL     OW55464   0.724   3.386   5.239 -0.0993  1.0849 -0.6539
18008SOL    HW155465   0.668   3.319   5.198 -1.1981  1.5461  0.0468
18008SOL    HW255466   0.668   3.464   5.243  0.6589  1.6078 -0.0577
18009SOL     OW55467   5.529   6.167   1.498  0.3512 -0.0934  0.4587
18009SOL    HW155468   5.588   6.192   1.427 -2.2014  1.0688 -1.3965
18009SOL    HW255469   5.534   6.072   1.502  1.2352 -0.1069 -0.6374
18010SOL     OW55470   6.441   1.522   9.695  0.5994 -0.0956 -0.0914
18010SOL    HW155471   6.429   1.595   9.635 -0.6695 -1.5913 -1.8050
18010SOL    HW255472   6.389   1.545   9.772 -0.5582  0.4342 -0.9878
18011SOL     OW55473   5.902   1.104   3.051  0.6855 -0.0303 -0.2121
18011SOL    HW155474   5.818   1.127   3.091  0.0341  1.3827 -2.1998
18011SOL    HW255475   5.965   1.110   3.123 -0.4484  2.0276  0.7125
18012SOL     OW55476   6.735   3.936   5.835 -0.1375  0.0313  0.0514
18012SOL    HW155477   6.700   4.021   5.863  1.5222  0.5808  0.5533
18012SOL    HW255478   6.817   3.956   5.792  0.2333 -1.3225  0.0701
18013SOL     OW55479   6.889   4.849   0.333 -0.3385 -0.9563 -0.0896
18013SOL    HW155480   6.857   4.795   0.404 -0.8859 -1.1040 -0.4467
18013SOL    HW255481   6.855   4.937   0.352  0.5769 -0.7149  0.5075
18014SOL     OW55482   4.189   7.868   7.760 -0.0910  0.4259 -0.9199
18014SOL    HW155483   4.162   7.956   7.787 -0.2575  0.1557 -0.1845
18014SOL    HW255484   4.282   7.876   7.742  0.0604  0.5809 -0.1000
18015SOL     OW55485   1.529   7.015   5.859  0.6426  0.0032  0.1950
18015SOL    HW155486   1.571   6.997   5.775  0.6485 -2.3906  0.6518
18015SOL    HW255487   1.585   6.973   5.924 -1.4017 -1.6782  0.9898
18016SOL     OW55488   5.028   4.868   3.172 -0.0041 -0.1917 -0.1466
18016SOL    HW155489   4.933   4.876   3.174 -0.0999 -1.3540  0.3640
18016SOL    HW255490   5.048   4.799   3.235  1.2272  0.4567  0.2107
18017SOL     OW55491   4.256   5.972   0.590  0.4540 -0.5213  0.1689
18017SOL    HW155492   4.254   6.009   0.678 -0.9727 -0.4440  0.1392
18017SOL    HW255493   4.326   6.019   0.545  1.2764 -0.6480  1.2796
18018SOL     OW55494   4.663   0.444   1.556  0.4846 -0.0639 -0.1510
18018SOL    HW155495   4.724   0.463   1.484  1.3465  0.2187  0.6387
18018SOL    HW255496   4.607   0.522   1.560  0.0096 -0.3498 -0.9173
18019SOL     OW55497   6.510   1.839  10.546  0.1208  0.4485 -0.1080
18019SOL    HW155498   6.424   1.882  10.537 -0.7940 -1.2234  0.2242
18019SOL    HW255499   6.520   1.790  10.465 -0.0824 -0.7619  0.5707
18020SOL     OW55500   0.817   3.345   2.068 -0.4633 -0.3245  0.1047
18020SOL    HW155501   0.780   3.354   2.156 -2.3049 -2.1871 -0.3951
18020SOL    HW255502   0.897   3.294   2.081 -0.6759 -0.5088  0.7172
18021SOL     OW55503   7.481   4.060   5.124  0.0212  0.0653 -0.0101
18021SOL    HW155504   7.545   4.004   5.166  2.0268  1.4485 -1.0806
18021SOL    HW255505   7.403   4.054   5.180  1.2794 -1.1388  1.6906
18022SOL     OW55506   5.646   2.641   5.957 -0.2986  0.3012 -0.3266
18022SOL    HW155507   5.616   2.563   5.910  1.3780 -1.0995  0.8112
18022SOL    HW255508   5.740   2.629   5.965 -0.0686  2.2193  0.3607
18023SOL     OW55509   0.770   7.258  10.202  0.6158  0.4845  0.2027
18023SOL    HW155510   0.687   7.285  10.240  0.3446 -2.8656  2.4746
18023SOL    HW255511   0.834   7.319  10.239 -0.6080  2.4046 -0.6812
18024SOL     OW55512   6.148   4.136   1.445  0.3790 -0.0136  0.2073
18024SOL    HW155513   6.238   4.138   1.413  0.4804  3.2168  0.3751
18024SOL    HW255514   6.094   4.158   1.369 -0.1301 -0.3516  0.4643
18025SOL     OW55515   7.529   2.848   9.886 -0.0002  0.1686 -0.5853
18025SOL    HW155516   7.475   2.769   9.886 -0.4522  0.4699 -1.1587
18025SOL    HW255517   7.567   2.851   9.798  1.7060 -0.5375  0.0926
18026SOL     OW55518   0.129   4.271   1.236 -0.0385  0.0427  0.3131
18026SOL    HW155519   0.143   4.320   1.317 -1.4937  1.2560 -0.1197
18026SOL    HW255520   0.063   4.206   1.258 -0.9193  0.7989 -0.0252
18027SOL     OW55521   7.161   5.566   7.478 -0.7071  0.3289 -0.1687
18027SOL    HW155522   7.213   5.618   7.539 -0.2893 -0.0698 -0.1817
18027SOL    HW255523   7.174   5.607   7.393  1.2700 -0.9649 -0.5595
18028SOL     OW55524   4.665   0.503   0.391 -0.3802  0.0477  0.2011
18028SOL    HW155525   4.660   0.579   0.449  0.5951  0.0439  0.3109
18028SOL    HW255526   4.654   0.538   0.303  0.9052  0.4548  0.1818
18029SOL     OW55527   6.622   2.174   6.157 -0.5130  0.5466 -0.1054
18029SOL    HW155528   6.639   2.248   6.216  0.2917  1.0955 -0.9895
18029SOL    HW255529   6.613   2.215   6.070  2.7039 -0.5639 -1.0912
18030SOL     OW55530   1.970   5.197   7.295 -0.2849 -0.1002  0.0561
18030SOL    HW155531   1.905   5.127   7.295 -1.1745  0.6169 -2.2673
18030SOL    HW255532   2.054   5.152   7.290 -0.7904 -1.0137 -0.5243
18031SOL     OW55533   7.060   1.850   1.553 -0.3275 -0.5154  0.0882
18031SOL    HW155534   6.966   1.865   1.542 -0.3113  0.4697  1.0900
18031SOL    HW255535   7.102   1.914   1.495 -0.2684 -0.6916 -0.0653
18032SOL     OW55536   7.396   0.998  12.343 -0.1074  0.0431  0.1987
18032SOL    HW155537   7.379   0.920  12.395  0.1011 -0.3929 -0.3846
18032SOL    HW255538   7.465   1.045  12.392  0.0989 -0.3680  0.3020
18033SOL     OW55539   1.811   7.188  10.150  0.1363 -0.1343 -0.3868
18033SOL    HW155540   1.730   7.227  10.116 -1.6787 -2.1153  1.4216
18033SOL    HW255541   1.820   7.225  10.238  1.1473 -0.0765 -0.5004
18034SOL     OW55542   0.763   0.012   9.971 -0.4126  0.1216 -0.0053
18034SOL    HW155543   0.757   0.068  10.049  0.8151 -0.5469  0.5848
18034SOL    HW255544   0.675   0.015   9.934 -0.1899  3.3079 -0.6125
18035SOL     OW55545   1.875   4.071   5.211  0.0664  0.1683 -0.5272
18035SOL    HW155546   1.801   4.123   5.241 -0.6381 -0.8143 -0.5057
18035SOL    HW255547   1.938   4.074   5.283 -0.3324  0.2822 -0.1811
18036SOL     OW55548   2.044   5.741  12.151 -0.0861  0.3959 -0.3610
18036SOL    HW155549   1.965   5.795  12.161  0.0079  0.1489  2.8073
18036SOL    HW255550   2.011   5.651  12.153  0.2034  0.2994  0.3708
18037SOL     OW55551   0.836   1.828   0.982 -0.2101  0.2592  0.0933
18037SOL    HW155552   0.913   1.788   0.942  0.0834  1.2546 -0.3721
18037SOL    HW255553   0.826   1.782   1.066  1.6753  0.9600  0.7622
18038SOL     OW55554   7.056   4.493   8.349 -0.2098 -0.4745 -0.5301
18038SOL    HW155555   7.073   4.464   8.259 -0.8528 -2.2039 -0.1258
18038SOL    HW255556   6.961   4.483   8.360 -0.5874  2.3374 -0.5010
18039SOL     OW55557   4.250   0.894  12.298 -0.1581  0.1856 -0.1860
18039SOL    HW155558   4.238   0.892  12.203 -2.2315 -3.0860 -0.0007
18039SOL    HW255559   4.336   0.856  12.312 -0.5686 -0.9836 -0.7266
18040SOL     OW55560   6.142   7.511   5.483  0.7924 -0.4303 -0.1955
18040SOL    HW155561   6.120   7.422   5.456 -2.7004  0.2570 -0.1129
18040SOL    HW255562   6.132   7.511   5.578 -0.6457  0.3030 -0.3151
18041SOL     OW55563   3.350   3.307   8.765  0.4112 -0.4971  0.1936
18041SOL    HW155564   3.350   3.221   8.807 -0.2506  0.0272  1.3207
18041SOL    HW255565   3.279   3.302   8.700 -1.5998  0.0732  2.2388
18042SOL     OW55566   5.840   0.099   3.046  0.1481 -0.3252  0.4034
18042SOL    HW155567   5.841   0.048   2.965  2.3090 -1.9502  1.3302
18042SOL    HW255568   5.751   0.088   3.080 -0.4465 -0.5713 -1.1605
18043SOL     OW55569   4.636   2.243   8.226  0.0903  0.5521  0.2461
18043SOL    HW155570   4.696   2.206   8.290  0.7086 -0.4666 -0.8794
18043SOL    HW255571   4.551   2.202   8.246 -0.2643  1.9881  1.8312
18044SOL     OW55572   4.776   1.775   0.699  0.0763  0.6405 -0.0418
18044SOL    HW155573   4.744   1.810   0.617 -0.6326 -1.4064 -0.6966
18044SOL    HW255574   4.699   1.741   0.744  0.7010 -0.1525  0.4891
18045SOL     OW55575   4.968   1.110  11.309 -0.4784 -0.3991  0.4768
18045SOL    HW155576   5.013   1.078  11.231  0.5942  2.8013 -0.3362
18045SOL    HW255577   5.025   1.083  11.381 -0.8758 -2.3421  0.1338
18046SOL     OW55578   5.538   5.711   6.225 -0.4024 -0.4626  0.3924
18046SOL    HW155579   5.591   5.682   6.151  0.4161 -0.6543  1.0449
18046SOL    HW255580   5.572   5.798   6.246 -2.3519  0.7602 -1.0861
18047SOL     OW55581   2.740   4.175  10.476 -0.7021  0.0854 -0.6709
18047SOL    HW155582   2.762   4.216  10.560  1.7447  0.5140 -1.4639
18047SOL    HW255583   2.661   4.124  10.496  0.0019 -0.1554  1.9941
18048SOL     OW55584   5.075   1.755   7.096 -0.7018 -0.3118 -0.4531
18048SOL    HW155585   5.077   1.849   7.079  1.3980  0.0923  1.4518
18048SOL    HW255586   5.020   1.746   7.174  1.0980 -0.2550  0.8980
18049SOL     OW55587   3.436   6.299  10.478  0.1802  0.1054  0.5955
18049SOL    HW155588   3.374   6.232  10.507  1.5392  0.3195  4.4901
18049SOL    HW255589   3.424   6.371  10.540  2.6065  1.1788 -0.0872
18050SOL     OW55590   6.642   3.897  10.902  0.2084  0.3979  0.1267
18050SOL    HW155591   6.618   3.814  10.861 -0.9359 -0.1607  1.7875
18050SOL    HW255592   6.732   3.883  10.933  0.2538  0.0035 -0.1689
18051SOL     OW55593   7.042   6.785   8.140  0.5287  0.2173 -0.1855
18051SOL    HW155594   6.973   6.783   8.206  1.1177 -0.5815  0.4265
18051SOL    HW255595   7.105   6.849   8.173  0.6108  0.1366 -0.1841
18052SOL     OW55596   1.038   2.061   2.660  0.0914  0.0791 -0.1024
18052SOL    HW155597   1.081   2.047   2.575 -0.3275  3.3581 -0.9785
18052SOL    HW255598   0.959   2.008   2.655  0.0524  0.2172 -1.8123
18053SOL     OW55599   6.255   1.118   5.849  0.4130  0.1140 -0.1656
18053SOL    HW155600   6.168   1.153   5.830  0.3307 -0.2405 -0.4629
18053SOL    HW255601   6.315   1.176   5.803  0.1707 -1.2278 -2.3182
18054SOL     OW55602   0.193   2.250   3.739  0.7386 -0.1904 -0.2043
18054SOL    HW155603   0.216   2.191   3.811  0.1166 -0.2090 -0.0129
18054SOL    HW255604   0.274   2.297   3.719  1.2268 -1.0556 -0.3129
18055SOL     OW55605   7.854   7.711   7.483  0.5809  0.1500 -0.6444
18055SOL    HW155606   7.842   7.801   7.513  1.1122  0.0024  0.0366
18055SOL    HW255607   7.775   7.692   7.432  1.0518  1.4400 -1.9361
18056SOL     OW55608   5.988   6.295   7.459 -0.2500 -0.1980  0.2393
18056SOL    HW155609   6.038   6.301   7.540  0.2152 -0.7235 -0.0041
18056SOL    HW255610   6.051   6.314   7.389 -0.0039 -2.3109 -0.1738
18057SOL     OW55611   2.958   3.195   4.899  0.4934  0.0001 -0.0185
18057SOL    HW155612   2.908   3.277   4.902 -0.2835 -0.5017  0.7564
18057SOL    HW255613   3.044   3.219   4.935  0.0769  0.3438  0.7740
18058SOL     OW55614   3.855   3.647   0.910 -0.7276 -0.1131 -0.4068
18058SOL    HW155615   3.937   3.668   0.953 -0.6829 -2.0488  0.5472
18058SOL    HW255616   3.799   3.723   0.927  0.2771  0.4587  0.4448
18059SOL     OW55617   6.873   5.487  10.305  0.2106 -0.2751 -0.5048
18059SOL    HW155618   6.822   5.406  10.309  0.0121 -0.1924 -1.3111
18059SOL    HW255619   6.810   5.556  10.328  0.1586 -0.2518 -0.7232
18060SOL     OW55620   7.592   4.827   0.188 -0.6668  0.3865  0.1325
18060SOL    HW155621   7.677   4.846   0.148 -0.2727  0.5331  1.0154
18060SOL    HW255622   7.539   4.792   0.116  0.7391 -1.5327 -0.0655
18061SOL     OW55623   1.280   3.356   0.176 -0.5383 -0.0002 -0.2292
18061SOL    HW155624   1.357   3.355   0.234 -0.5222  0.6967 -0.2237
18061SOL    HW255625   1.213   3.309   0.225 -0.3075 -0.0472  0.0509
18062SOL     OW55626   2.794   0.709   1.689  0.0935 -0.2757 -0.0478
18062SOL    HW155627   2.753   0.634   1.646 -0.2074  1.2766 -2.6667
18062SOL    HW255628   2.723   0.753   1.735  0.2037 -1.3323  1.1903
18063SOL     OW55629   4.218   4.071   6.070 -0.1276 -0.0890  0.0955
18063SOL    HW155630   4.188   3.981   6.082 -1.3514  0.0470 -1.6907
18063SOL    HW255631   4.305   4.061   6.030 -1.2499 -0.5380 -2.3785
18064SOL     OW55632   5.226   6.127   4.717  0.8408  0.2120  0.5557
18064SOL    HW155633   5.206   6.215   4.686 -0.5074 -0.5441 -0.8231
18064SOL    HW255634   5.252   6.079   4.639  1.8463 -0.5681  1.3325
18065SOL     OW55635   3.784   6.079  10.336 -0.2522 -0.0863  0.0304
18065SOL    HW155636   3.825   6.116  10.414 -1.8158  0.1597  0.7779
18065SOL    HW255637   3.708   6.136  10.320 -2.6065 -2.6810  1.0796
18066SOL     OW55638   7.868   7.593  12.357 -0.0807  0.3653 -0.0018
18066SOL    HW155639   7.777   7.586  12.328 -0.1896  1.2312  0.0890
18066SOL    HW255640   7.896   7.679  12.325  0.9813 -0.2415 -0.7848
18067SOL     OW55641   0.166   5.649   1.191  0.0206 -0.6361 -0.2610
18067SOL    HW155642   0.088   5.594   1.182 -2.0626  2.0188  0.4637
18067SOL    HW255643   0.156   5.691   1.277  0.9441  1.6407 -1.1993
18068SOL     OW55644   1.790   3.156   4.650 -0.2427 -0.0128 -0.0274
18068SOL    HW155645   1.705   3.113   4.657 -0.8957  1.4857  2.8426
18068SOL    HW255646   1.811   3.155   4.557 -1.8127 -3.3393 -0.4858
18069SOL     OW55647   2.961   4.945   2.984  0.0607  0.1540  0.2231
18069SOL    HW155648   2.905   4.876   2.950 -1.9891  1.6929  0.2851
18069SOL    HW255649   3.028   4.900   3.034 -1.1795 -1.7668  0.2232
18070SOL     OW55650   3.990   6.933   2.743 -0.0105 -0.1512  0.0746
18070SOL    HW155651   4.008   6.841   2.727 -1.1374 -0.5403  0.9733
18070SOL    HW255652   4.032   6.952   2.827 -2.2929 -0.6612  1.4056
18071SOL     OW55653   2.576   6.238  10.578  0.4147 -0.5071 -0.0773
18071SOL    HW155654   2.597   6.293  10.654  1.2035  0.9863 -1.3087
18071SOL    HW255655   2.566   6.150  10.614  1.0222  0.1048  1.7172
18072SOL     OW55656   2.986   2.716   6.203  0.2854  0.2756  0.4114
18072SOL    HW155657   3.058   2.777   6.185  0.3435  0.1209  0.1263
18072SOL    HW255658   3.012   2.634   6.161  1.4890 -0.7915  3.0275
18073SOL     OW55659   4.829   1.409   5.601  0.0291  0.3644  0.2326
18073SOL    HW155660   4.774   1.486   5.621  0.1609  0.0544  1.9065
18073SOL    HW255661   4.778   1.360   5.536 -0.7482  1.0956  0.2709
18074SOL     OW55662   6.308   1.244  10.278 -0.1934  0.3686  0.0121
18074SOL    HW155663   6.375   1.258  10.346 -0.1003 -1.8898  0.4449
18074SOL    HW255664   6.359   1.230  10.198 -0.2603  1.3589 -0.2192
18075SOL     OW55665   2.765   3.402   8.598  0.2516 -0.4576  0.4523
18075SOL    HW155666   2.845   3.374   8.553 -0.1007 -0.1627 -0.3743
18075SOL    HW255667   2.694   3.371   8.542 -0.2883 -1.9546  1.8748
18076SOL     OW55668   7.011   6.590   5.806 -0.4327  0.1425 -0.0805
18076SOL    HW155669   6.923   6.575   5.772 -0.4239  0.4110 -0.2262
18076SOL    HW255670   7.005   6.570   5.899 -0.3888 -0.8993 -0.2838
18077SOL     OW55671   0.760   0.285   1.016  1.1388  0.3842  0.5051
18077SOL    HW155672   0.786   0.358   1.071 -2.2664  1.1803  1.3359
18077SOL    HW255673   0.724   0.326   0.937 -0.7755 -0.3010  0.9617
18078SOL     OW55674   2.149   4.007   4.861 -0.2764 -0.2362  0.4432
18078SOL    HW155675   2.185   4.010   4.950  0.3405 -1.9556  0.2876
18078SOL    HW255676   2.226   4.000   4.805 -0.6763  0.6341 -0.2315
18079SOL     OW55677   7.345   2.232   9.955 -0.1991 -0.2466 -0.1707
18079SOL    HW155678   7.250   2.220   9.960 -0.1645 -0.2345  0.6585
18079SOL    HW255679   7.356   2.322   9.925 -0.4454 -0.5900 -1.3345
18080SOL     OW55680   1.523   7.049   4.375 -0.4921 -0.2426  0.0013
18080SOL    HW155681   1.466   7.066   4.300 -3.0382 -0.2394  1.8034
18080SOL    HW255682   1.506   6.957   4.398 -1.4624  0.3350  1.8240
18081SOL     OW55683   3.736   5.071   6.046 -0.2454  0.7205  0.3860
18081SOL    HW155684   3.796   5.121   5.991  1.2173  0.0060  1.2550
18081SOL    HW255685   3.724   4.988   5.999 -0.4817  0.8267  0.2581
18082SOL     OW55686   3.757   1.205   8.813  0.0816 -0.2975  0.2308
18082SOL    HW155687   3.729   1.171   8.898  0.2120 -0.8230  0.0619
18082SOL    HW255688   3.785   1.128   8.763  2.4233  0.2289  0.5976
18083SOL     OW55689   6.949   6.936   2.501  0.1015 -0.2937 -0.0853
18083SOL    HW155690   7.016   6.909   2.565  0.3018  0.4123  0.0078
18083SOL    HW255691   6.919   6.854   2.463  0.4266 -0.6827  0.4727
18084SOL     OW55692   5.888   3.283   3.905  0.1047  0.1104 -0.3178
18084SOL    HW155693   5.970   3.235   3.912  0.4198  0.7547  0.6161
18084SOL    HW255694   5.863   3.302   3.995 -0.0470  1.6063 -0.6494
18085SOL     OW55695   2.015   2.228   7.712 -0.5372  0.2882 -0.8307
18085SOL    HW155696   2.110   2.229   7.696 -0.3820 -1.1353 -0.1869
18085SOL    HW255697   1.986   2.316   7.689  0.9474  0.7665 -1.0109
18086SOL     OW55698   5.361   5.124   0.779  0.1355  0.3861 -0.8590
18086SOL    HW155699   5.321   5.197   0.826  1.9756  1.9146 -1.5480
18086SOL    HW255700   5.447   5.156   0.752  0.2612 -1.3649 -2.8743
18087SOL     OW55701   5.034   2.813   9.994  0.3616 -0.5646  0.1974
18087SOL    HW155702   5.063   2.743  10.052  0.0536 -1.4132 -0.6507
18087SOL    HW255703   4.946   2.786   9.966 -0.0478  0.5098  0.4124
18088SOL     OW55704   5.382   0.606   7.245 -0.2059 -0.1649 -0.0669
18088SOL    HW155705   5.301   0.607   7.297 -0.7226  3.2835 -0.7285
18088SOL    HW255706   5.353   0.586   7.156  0.2045 -2.3388  0.2318
18089SOL     OW55707   1.519   3.997   0.039  0.4275  0.5134  0.2543
18089SOL    HW155708   1.499   3.930   0.104 -1.8576  1.0652  0.2142
18089SOL    HW255709   1.607   4.027   0.061  1.7474 -2.7711 -0.0130
18090SOL     OW55710   3.554   2.283  11.398 -0.1060  0.2103 -0.1702
18090SOL    HW155711   3.499   2.229  11.342  0.4721 -1.9028  1.2053
18090SOL    HW255712   3.500   2.301  11.475  1.0038 -1.8095  1.1530
18091SOL     OW55713   1.185   3.127   3.862  0.4888 -0.2125 -0.8406
18091SOL    HW155714   1.240   3.051   3.844  1.6136  0.7162 -1.4765
18091SOL    HW255715   1.186   3.177   3.781  2.9153  2.3885  0.5892
18092SOL     OW55716   2.690   2.905   9.835 -0.1529 -0.5406 -0.3942
18092SOL    HW155717   2.617   2.859   9.792  0.3998 -1.4645 -0.3673
18092SOL    HW255718   2.657   2.994   9.848 -0.8658 -0.6269 -1.4226
18093SOL     OW55719   2.730   0.842   1.982  0.1539  0.0880 -1.1199
18093SOL    HW155720   2.782   0.922   1.986  0.0419  0.1437 -0.7791
18093SOL    HW255721   2.795   0.771   1.987  0.2067  0.1574 -0.7923
18094SOL     OW55722   2.700   1.282   6.594 -0.2964 -0.4574 -0.0142
18094SOL    HW155723   2.752   1.318   6.522  0.2973 -1.2886 -0.0079
18094SOL    HW255724   2.686   1.191   6.570 -1.1279 -0.4364  0.3517
18095SOL     OW55725   5.742   1.355   0.024 -0.6125 -0.5261 -0.2769
18095SOL    HW155726   5.749   1.390   0.113 -0.9421 -1.4257  0.1153
18095SOL    HW255727   5.704   1.268   0.035 -2.3603  0.0340 -1.4413
18096SOL     OW55728   6.072   2.107   3.282  0.2594  0.0209  0.3016
18096SOL    HW155729   6.126   2.049   3.336 -1.5824  0.3982  2.7673
18096SOL    HW255730   6.055   2.183   3.339 -1.7939  0.4658 -0.8055
18097SOL     OW55731   1.592   2.365   3.803 -0.1304 -0.1607  0.0197
18097SOL    HW155732   1.496   2.369   3.802 -0.1092  0.7381 -0.0174
18097SOL    HW255733   1.614   2.349   3.894 -0.2896  1.7661  0.4409
18098SOL     OW55734   1.464   6.069  10.738  0.1448  0.1892  0.6075
18098SOL    HW155735   1.457   6.029  10.825  0.4210 -0.6333  0.2539
18098SOL    HW255736   1.514   6.007  10.686  0.4150  0.9065 -0.0145
18099SOL     OW55737   5.376   5.529   2.217 -0.6106 -0.7812 -0.3722
18099SOL    HW155738   5.422   5.473   2.154  0.7187  0.7616 -0.8354
18099SOL    HW255739   5.336   5.597   2.163  0.7305  0.6895  0.4079
18100SOL     OW55740   5.200   4.324  10.706  0.0730  0.4969  0.4545
18100SOL    HW155741   5.240   4.238  10.717 -2.3347 -0.7118  0.4372
18100SOL    HW255742   5.224   4.351  10.617  0.0833 -0.5908  0.1173
18101SOL     OW55743   1.690   4.313   3.307 -0.1725  0.0540  0.3712
18101SOL    HW155744   1.674   4.281   3.218  0.6993 -1.3123  0.6681
18101SOL    HW255745   1.670   4.406   3.303 -1.6462 -0.2649 -0.8703
18102SOL     OW55746   1.239   0.152   5.618 -0.3143  0.1009 -0.8915
18102SOL    HW155747   1.331   0.131   5.601 -0.9390 -1.6385 -2.6017
18102SOL    HW255748   1.190   0.091   5.562 -2.5302  0.5563  0.4133
18103SOL     OW55749   4.356   4.583   1.514 -0.3142  0.1818 -0.0893
18103SOL    HW155750   4.440   4.627   1.520 -0.0741 -0.1745 -0.8164
18103SOL    HW255751   4.365   4.506   1.570  0.7557 -1.2762 -2.1493
18104SOL     OW55752   0.981   6.719   3.197 -0.4864 -0.6926 -0.1383
18104SOL    HW155753   0.982   6.652   3.266  1.2103 -0.3566  0.2098
18104SOL    HW255754   0.993   6.802   3.244  1.9526 -0.5590 -0.8873
18105SOL     OW55755   3.750   4.790   6.239  0.1644  0.7176 -0.0878
18105SOL    HW155756   3.684   4.807   6.171  1.5064  2.4690 -1.0365
18105SOL    HW255757   3.781   4.702   6.219  0.2724  1.0567 -1.5497
18106SOL     OW55758   1.176   3.918   3.819  0.5788 -0.3234 -0.1066
18106SOL    HW155759   1.113   3.889   3.753  0.4670  1.2564 -0.7257
18106SOL    HW255760   1.260   3.883   3.789  0.8250  1.7373 -2.0399
18107SOL     OW55761   3.691   1.779   3.369 -0.1629 -0.9805  0.4842
18107SOL    HW155762   3.768   1.723   3.362  1.3674  1.0571  0.0820
18107SOL    HW255763   3.649   1.774   3.284  0.7924 -0.4030 -0.0316
18108SOL     OW55764   0.480   6.132   6.322 -0.1594 -0.1301 -0.2981
18108SOL    HW155765   0.549   6.198   6.319  0.2355 -0.5759 -1.4749
18108SOL    HW255766   0.401   6.181   6.343 -0.0823  0.9179 -2.2638
18109SOL     OW55767   3.483   7.652   0.608 -0.0714 -0.4998 -0.4120
18109SOL    HW155768   3.402   7.675   0.653 -0.3424  0.1800 -1.2099
18109SOL    HW255769   3.511   7.569   0.647 -0.8621 -0.4657  0.2362
18110SOL     OW55770   6.135   0.630   1.750 -0.4259 -0.0955  0.0646
18110SOL    HW155771   6.167   0.649   1.838 -1.6417 -0.3321  0.5788
18110SOL    HW255772   6.129   0.534   1.746 -1.7136 -0.0353  0.2349
18111SOL     OW55773   4.127   6.653   2.285  0.2776 -0.0851  0.0258
18111SOL    HW155774   4.122   6.658   2.189  0.4391  0.3566  0.0332
18111SOL    HW255775   4.221   6.649   2.303  0.3840  1.9703  0.2301
18112SOL     OW55776   2.121   5.632  10.764 -0.4299  0.1588  0.6432
18112SOL    HW155777   2.046   5.592  10.721 -0.4582 -0.5920  1.3469
18112SOL    HW255778   2.139   5.574  10.838  2.3194 -1.0467 -0.8160
18113SOL     OW55779   3.810   2.793   8.697  0.7393 -0.2458  0.4831
18113SOL    HW155780   3.877   2.751   8.643  0.7969  2.6499 -1.9564
18113SOL    HW255781   3.845   2.880   8.715 -1.5551  0.7049  0.7218
18114SOL     OW55782   3.555   4.903   0.111 -0.5402  0.2875  0.3488
18114SOL    HW155783   3.471   4.859   0.126 -0.4867 -0.1638 -0.6239
18114SOL    HW255784   3.618   4.831   0.101 -0.3185  0.5892 -0.4817
18115SOL     OW55785   3.530   0.625  11.446  0.2461  0.0700 -0.0160
18115SOL    HW155786   3.459   0.591  11.501 -1.0413  0.9354 -1.0895
18115SOL    HW255787   3.573   0.546  11.413 -1.1808 -0.5162 -0.5598
18116SOL     OW55788   7.747   6.033  12.377  0.4491 -0.4595  0.2421
18116SOL    HW155789   7.771   6.124  12.393  1.7510 -0.5819 -0.7732
18116SOL    HW255790   7.696   6.035  12.297  0.9355 -0.6580 -0.0817
18117SOL     OW55791   5.055   3.927  11.651 -0.3660 -0.3411 -0.2806
18117SOL    HW155792   4.997   3.856  11.677  0.4357 -0.2752  1.8734
18117SOL    HW255793   5.126   3.884  11.603 -0.5716 -0.8107 -0.1717
18118SOL     OW55794   1.590   1.342   1.664 -0.0076 -0.3727  0.1340
18118SOL    HW155795   1.505   1.354   1.706  0.1000  2.0476 -0.2297
18118SOL    HW255796   1.645   1.304   1.733 -1.4724 -2.5307  0.2060
18119SOL     OW55797   5.992   1.023   2.808  0.0064  0.1222  0.0668
18119SOL    HW155798   5.952   1.035   2.895 -0.1838  0.8554 -0.1190
18119SOL    HW255799   5.959   1.096   2.756  1.8977  0.9913  0.0150
18120SOL     OW55800   2.084   5.911   0.133  0.0680  0.9408 -0.3388
18120SOL    HW155801   2.073   6.003   0.155 -0.1073  1.3673 -2.1005
18120SOL    HW255802   2.014   5.893   0.070  1.1319  0.0748 -1.3201
18121SOL     OW55803   0.462   3.935  10.992  0.0778 -0.4460 -0.3772
18121SOL    HW155804   0.392   4.000  10.989  0.2555 -0.2699 -0.7086
18121SOL    HW255805   0.428   3.866  11.049 -0.2314 -0.2053 -0.2674
18122SOL     OW55806   4.037   7.738   3.201 -0.1461 -0.3556 -0.5895
18122SOL    HW155807   3.956   7.698   3.169  0.4359 -0.5626 -1.8845
18122SOL    HW255808   4.023   7.832   3.191 -0.2821 -0.3819 -0.6507
18123SOL     OW55809   2.956   0.651   8.326 -0.2425 -0.1313 -0.0140
18123SOL    HW155810   2.983   0.717   8.262  0.2406  0.4636  0.7924
18123SOL    HW255811   2.957   0.568   8.277  3.3970 -0.2271 -0.0208
18124SOL     OW55812   5.046   0.490  10.387  0.4551 -0.7550 -0.0620
18124SOL    HW155813   5.080   0.489  10.297 -1.3664  0.8680 -0.8376
18124SOL    HW255814   5.107   0.546  10.435  0.3597 -0.0150 -0.7856
18125SOL     OW55815   2.404   5.590   0.498  0.0124  0.4744  0.4526
18125SOL    HW155816   2.397   5.671   0.548 -0.9285  0.1403  0.8741
18125SOL    HW255817   2.338   5.598   0.430  1.1527  0.8418 -0.6542
18126SOL     OW55818   3.832   7.224  10.571 -0.8152 -0.3943 -0.0388
18126SOL    HW155819   3.871   7.310  10.557 -0.8065 -0.3176  0.4725
18126SOL    HW255820   3.812   7.193  10.482 -1.9181  0.6316 -0.1736
18127SOL     OW55821   7.094   1.425   7.037  0.5332 -0.0338  0.2454
18127SOL    HW155822   7.172   1.405   6.986  2.0664  1.8739  1.6844
18127SOL    HW255823   7.127   1.459   7.120 -1.8423 -1.5839  1.9723
18128SOL     OW55824   4.792   1.938   6.623  0.2263 -0.5191  0.5420
18128SOL    HW155825   4.852   1.947   6.697  0.4957  1.8531  0.1265
18128SOL    HW255826   4.840   1.973   6.549 -1.0302 -0.2091 -0.1601
18129SOL     OW55827   7.155   4.997   3.717 -0.0126 -0.1624  0.3296
18129SOL    HW155828   7.115   4.992   3.630  0.7544 -1.1761  0.0117
18129SOL    HW255829   7.206   5.078   3.715  1.6098 -1.1416 -0.9166
18130SOL     OW55830   1.120   0.597   1.429  0.5532  0.2137 -0.6346
18130SOL    HW155831   1.102   0.548   1.509 -0.5581  1.6960  0.0785
18130SOL    HW255832   1.209   0.630   1.440  0.4312  0.3519 -0.0238
18131SOL     OW55833   6.920   1.574   8.788  0.2640 -0.2277 -0.1604
18131SOL    HW155834   6.988   1.530   8.738 -0.0935 -2.0960  0.9133
18131SOL    HW255835   6.955   1.662   8.804  1.7217 -0.6340 -0.9754
18132SOL     OW55836   4.785   0.366   9.133 -0.1553  0.0191 -0.1723
18132SOL    HW155837   4.752   0.293   9.081  1.1992 -0.7546  0.0026
18132SOL    HW255838   4.878   0.370   9.112 -0.2916  2.1018 -0.6467
18133SOL     OW55839   7.082   5.054   9.457  0.7705 -0.6016 -0.3935
18133SOL    HW155840   7.163   5.094   9.489  0.0537  1.7670 -1.3953
18133SOL    HW255841   7.012   5.105   9.497 -0.1835 -0.4598 -2.1437
18134SOL     OW55842   7.626   5.580  10.224  0.1309 -0.1918  0.2232
18134SOL    HW155843   7.588   5.630  10.296 -0.8506 -0.6096  0.0151
18134SOL    HW255844   7.566   5.595  10.151 -1.1156 -2.8901  0.5686
18135SOL     OW55845   1.275   1.342   0.817 -0.2328  0.0197  0.1676
18135SOL    HW155846   1.271   1.437   0.831  1.3870  0.0822  0.5095
18135SOL    HW255847   1.231   1.328   0.733 -1.2121  0.9559  0.5012
18136SOL     OW55848   2.815   1.230   6.849 -0.2342 -0.1405 -0.0094
18136SOL    HW155849   2.870   1.305   6.870  0.2058 -0.2448 -0.7770
18136SOL    HW255850   2.780   1.249   6.762 -3.1321  0.9380  1.2286
18137SOL     OW55851   6.473   3.874   0.700 -0.4773 -0.2739 -0.3560
18137SOL    HW155852   6.443   3.786   0.675 -0.2588 -0.3719 -0.2773
18137SOL    HW255853   6.458   3.928   0.623 -0.1913 -0.4824 -0.5585
18138SOL     OW55854   2.309   6.280  10.503 -0.2522 -0.3167  0.2435
18138SOL    HW155855   2.400   6.254  10.516  0.1868  1.0654  0.0979
18138SOL    HW255856   2.306   6.316  10.415 -1.2769 -1.6311 -0.2860
18139SOL     OW55857   3.377   2.896   5.202  0.2302  0.2050 -0.2571
18139SOL    HW155858   3.352   2.919   5.113  0.7643 -1.1140 -0.7791
18139SOL    HW255859   3.471   2.880   5.198  0.2701  0.1495  0.5570
18140SOL     OW55860   2.051   7.371   5.310 -0.2890 -0.4643  0.4593
18140SOL    HW155861   2.073   7.313   5.237 -0.9291 -0.7013  0.4535
18140SOL    HW255862   2.052   7.315   5.387 -0.7969 -0.4629  0.4693
18141SOL     OW55863   5.606   7.070   2.332 -0.2197 -0.8603 -0.8944
18141SOL    HW155864   5.515   7.101   2.326 -0.2904 -1.0051 -0.5827
18141SOL    HW255865   5.656   7.148   2.355 -0.3628 -0.9209 -0.3693
18142SOL     OW55866   2.514   0.636   6.791  0.3287  0.5891 -0.4119
18142SOL    HW155867   2.430   0.646   6.836 -0.8389 -0.0953 -2.3412
18142SOL    HW255868   2.570   0.703   6.830 -1.3123  1.4856  0.4885
18143SOL     OW55869   6.092   2.016   9.571  0.2806 -0.3157 -0.6176
18143SOL    HW155870   6.064   2.090   9.517 -0.4552 -0.5319 -0.5402
18143SOL    HW255871   6.153   1.968   9.515  0.2401 -0.0230 -0.9171
18144SOL     OW55872   1.870   4.719   8.107  0.3852 -0.5763 -0.8359
18144SOL    HW155873   1.918   4.797   8.135  0.4574 -1.0478  0.3883
18144SOL    HW255874   1.785   4.753   8.078  0.3088 -0.0682 -0.0471
18145SOL     OW55875   2.313   7.881  12.346 -0.1671  0.4810  0.5720
18145SOL    HW155876   2.236   7.826  12.358  0.6226 -0.8514 -0.1544
18145SOL    HW255877   2.279   7.968  12.329 -1.5371 -0.2135 -0.4043
18146SOL     OW55878   0.620   6.383   2.726  0.2184  0.2744 -0.9123
18146SOL    HW155879   0.556   6.339   2.782  2.1308 -0.8777  0.4758
18146SOL    HW255880   0.629   6.470   2.763  0.0069  0.1846 -0.6459
18147SOL     OW55881   0.740   3.959  12.106 -0.0262 -0.4200 -0.0844
18147SOL    HW155882   0.660   3.943  12.056  0.5897 -2.2758 -0.5588
18147SOL    HW255883   0.803   3.990  12.040 -0.0836  0.1721  0.1302
18148SOL     OW55884   5.933   4.229   9.804 -0.0036  0.0837  0.0371
18148SOL    HW155885   5.985   4.185   9.872 -0.0918 -0.3728 -0.1835
18148SOL    HW255886   5.877   4.290   9.853  1.6514  1.5619  0.1805
18149SOL     OW55887   1.389   5.537   4.379 -0.4163  0.1701 -0.2123
18149SOL    HW155888   1.345   5.614   4.343 -1.2277 -1.7030 -3.6574
18149SOL    HW255889   1.328   5.503   4.444 -1.7794  0.4592 -1.2943
18150SOL     OW55890   2.185   7.892   9.869  0.3958 -0.4655 -0.3564
18150SOL    HW155891   2.207   7.873   9.960 -0.7948  0.8186  0.2348
18150SOL    HW255892   2.131   7.818   9.841 -1.7901  0.5189  0.9895
18151SOL     OW55893   5.123   3.314   5.893 -0.0342  0.9897 -0.0000
18151SOL    HW155894   5.102   3.251   5.962  1.8299  1.5037  1.1099
18151SOL    HW255895   5.049   3.374   5.892 -0.6263  0.2988  0.7428
18152SOL     OW55896   5.243   0.921   3.163 -0.3928  0.0600  0.3864
18152SOL    HW155897   5.234   0.829   3.188  1.7359 -0.4017 -0.3068
18152SOL    HW255898   5.237   0.921   3.068  0.3766  0.5251  0.3305
18153SOL     OW55899   3.147   7.105  11.357 -0.3065 -0.5967  0.4420
18153SOL    HW155900   3.224   7.075  11.307 -1.9122 -1.2115 -1.8271
18153SOL    HW255901   3.122   7.029  11.409 -0.3635 -0.9551 -0.0998
18154SOL     OW55902   3.037   1.904   0.507  0.6078  0.1716 -0.1757
18154SOL    HW155903   3.098   1.960   0.555  0.5666  1.0174 -1.0933
18154SOL    HW255904   2.961   1.960   0.490 -0.1273 -0.6496  0.2930
18155SOL     OW55905   2.503   5.253   5.824  0.0170 -0.2410 -0.4705
18155SOL    HW155906   2.489   5.342   5.857 -0.1831  1.1437 -3.8982
18155SOL    HW255907   2.435   5.201   5.867 -0.1580  1.3098  1.2702
18156SOL     OW55908   0.876   0.331  11.613 -0.1184 -0.0062  0.0930
18156SOL    HW155909   0.923   0.280  11.548  1.1377 -0.5601  1.3694
18156SOL    HW255910   0.786   0.301  11.607  0.6258 -2.6268  0.9704
18157SOL     OW55911   3.455   5.850   5.356  0.0602  0.1966  0.4121
18157SOL    HW155912   3.496   5.935   5.370  0.3974  0.0461  0.3375
18157SOL    HW255913   3.462   5.835   5.261  0.6596 -0.2467  0.5207
18158SOL     OW55914   3.592   3.351   0.016  0.5572  0.0927  0.0657
18158SOL    HW155915   3.519   3.298  -0.015  0.4862  0.0818  0.2515
18158SOL    HW255916   3.556   3.439   0.027  0.8841  0.3868 -1.0807
18159SOL     OW55917   3.156   3.107   6.512 -0.4400  0.4437 -0.2718
18159SOL    HW155918   3.166   3.200   6.531 -1.4755  0.5841 -0.3090
18159SOL    HW255919   3.079   3.081   6.564 -2.5038  0.4991 -3.0360
18160SOL     OW55920   7.188   2.617   6.874  0.0383 -0.2693  0.2200
18160SOL    HW155921   7.134   2.693   6.852 -0.0231  0.0852  1.4974
18160SOL    HW255922   7.129   2.542   6.866 -1.2311  0.2526  3.2072
18161SOL     OW55923   7.239   5.956   1.217 -0.1190 -0.4624 -0.0492
18161SOL    HW155924   7.154   5.918   1.241  0.5890 -1.6737  0.6810
18161SOL    HW255925   7.277   5.982   1.301 -0.8826  2.7069 -0.5596
18162SOL     OW55926   6.637   7.875   6.266  0.2948 -0.1415  0.1038
18162SOL    HW155927   6.628   7.966   6.293 -1.7500 -0.4323  0.5745
18162SOL    HW255928   6.584   7.826   6.329  2.2710 -1.8253  0.5687
18163SOL     OW55929   1.823   1.483   7.652 -0.0957 -0.1215  0.4981
18163SOL    HW155930   1.803   1.390   7.636  0.1014 -0.1139  0.2062
18163SOL    HW255931   1.810   1.494   7.746  0.0177 -0.4819  0.5573
18164SOL     OW55932   4.261   6.405   4.397  0.3900 -0.3297 -0.2723
18164SOL    HW155933   4.311   6.326   4.377 -0.2273 -0.6458 -0.5802
18164SOL    HW255934   4.323   6.477   4.383  0.7407 -0.7138 -0.7043
18165SOL     OW55935   0.375   1.053   8.485  0.4936  0.1515 -0.1910
18165SOL    HW155936   0.400   1.131   8.436  1.8348 -0.3461 -0.3426
18165SOL    HW255937   0.422   0.981   8.442 -1.6682 -0.9661 -0.8424
18166SOL     OW55938   0.812   4.066   9.469 -0.3040  0.2462 -0.0329
18166SOL    HW155939   0.825   4.038   9.379  1.3023  0.2211  0.1720
18166SOL    HW255940   0.784   3.986   9.515  0.7492 -0.1998 -0.1474
18167SOL     OW55941   5.389   0.134  10.412  0.2639 -0.1405  0.0259
18167SOL    HW155942   5.338   0.058  10.383 -0.1611 -0.2337  0.9965
18167SOL    HW255943   5.375   0.199  10.343 -1.2137 -0.1509  0.2731
18168SOL     OW55944   4.327   5.833   3.132 -0.4374 -0.2378 -0.2614
18168SOL    HW155945   4.244   5.865   3.166 -0.1631  1.9956 -1.5207
18168SOL    HW255946   4.388   5.838   3.206 -1.2315 -1.3384  0.5057
18169SOL     OW55947   6.106   7.314  10.331 -0.1335  0.0680  0.3763
18169SOL    HW155948   6.145   7.228  10.344 -1.0184 -0.7010 -1.6707
18169SOL    HW255949   6.169   7.361  10.277 -1.2432 -0.6717 -1.6933
18170SOL     OW55950   2.960   2.794   2.656 -0.1079  0.1620  0.2607
18170SOL    HW155951   2.928   2.880   2.684  0.8792  0.2791  1.0600
18170SOL    HW255952   3.051   2.809   2.630  0.1302 -0.6744  0.5820
18171SOL     OW55953   7.032   0.450   6.069 -0.0266  0.4671  0.0176
18171SOL    HW155954   7.071   0.371   6.032 -3.6367 -0.8532 -1.4717
18171SOL    HW255955   6.994   0.421   6.152  1.1151  1.4547  0.9281
18172SOL     OW55956   3.917   7.773  11.084 -0.0992 -0.7196 -0.9287
18172SOL    HW155957   3.986   7.711  11.059  1.5279  0.4088  0.4660
18172SOL    HW255958   3.839   7.719  11.097  1.2364 -2.4895  0.1840
18173SOL     OW55959   3.174   6.761   9.040 -0.0256 -0.1560  0.2924
18173SOL    HW155960   3.169   6.755   9.136 -0.9555  0.9732  0.3410
18173SOL    HW255961   3.082   6.758   9.011  0.1485  0.9712 -0.4392
18174SOL     OW55962   3.071   7.046  11.850 -0.2153 -0.3162 -0.0549
18174SOL    HW155963   3.052   7.020  11.760 -0.6548  0.5960 -0.2269
18174SOL    HW255964   2.988   7.033  11.897 -0.4189  0.6658 -0.1239
18175SOL     OW55965   6.050   2.906   9.665 -0.1478 -0.6581 -0.5296
18175SOL    HW155966   6.111   2.833   9.678  0.3519 -0.4049 -1.3281
18175SOL    HW255967   5.964   2.864   9.656 -0.6733 -0.8405  3.6440
18176SOL     OW55968   0.537   2.833   1.926 -0.2272 -0.1096 -0.0617
18176SOL    HW155969   0.608   2.868   1.872 -0.1964 -0.2804 -0.1307
18176SOL    HW255970   0.578   2.813   2.010 -0.2783  0.1707  0.0314
18177SOL     OW55971   3.256   1.559  11.473 -0.2277 -0.7013  0.2912
18177SOL    HW155972   3.192   1.491  11.493 -1.3476 -0.0870 -0.9444
18177SOL    HW255973   3.326   1.514  11.426  0.5097 -1.4606  2.0467
18178SOL     OW55974   1.146   1.907   1.516  0.3436 -0.1472 -0.7011
18178SOL    HW155975   1.218   1.965   1.493  0.2701  0.0378 -0.4733
18178SOL    HW255976   1.074   1.934   1.459  0.6537 -0.7790 -1.4033
18179SOL     OW55977   1.090   4.529   0.779  0.2121 -0.3171 -0.0274
18179SOL    HW155978   1.134   4.611   0.757  0.7377 -0.6829 -0.3644
18179SOL    HW255979   1.002   4.555   0.805 -0.8538  0.1080 -3.5712
18180SOL     OW55980   6.541   4.100   1.165  0.7936 -0.6392 -0.8631
18180SOL    HW155981   6.457   4.058   1.150 -0.0040  0.7743 -0.5358
18180SOL    HW255982   6.605   4.040   1.126 -0.3690 -1.6238 -1.3255
18181SOL     OW55983   3.202   1.780   9.084  0.0873 -0.1007  0.0600
18181SOL    HW155984   3.143   1.847   9.120 -0.2370  0.3273 -1.1921
18181SOL    HW255985   3.144   1.709   9.057  0.3330 -0.4666  0.4962
18182SOL     OW55986   3.851   7.178   4.836 -0.2398 -0.6345  0.2940
18182SOL    HW155987   3.782   7.212   4.894 -1.5314  0.7684 -1.9404
18182SOL    HW255988   3.816   7.096   4.803 -0.1049 -0.7476  0.4313
18183SOL     OW55989   7.695   7.685  10.277 -0.3454 -0.3095 -0.2686
18183SOL    HW155990   7.651   7.767  10.300 -0.1718  0.0513 -1.1803
18183SOL    HW255991   7.677   7.627  10.351 -2.5017 -0.2358 -0.6620
18184SOL     OW55992   2.715   1.897   1.338  0.8673  0.4285  0.2759
18184SOL    HW155993   2.794   1.844   1.330  1.1079  0.8772 -0.4050
18184SOL    HW255994   2.665   1.878   1.259 -0.7858 -1.5482  1.6907
18185SOL     OW55995   7.173   0.059   7.961  0.0762  0.0237  0.7693
18185SOL    HW155996   7.190  -0.018   8.016  0.1285 -0.7561 -0.3036
18185SOL    HW255997   7.116   0.114   8.014  1.2438 -0.0501  2.1520
18186SOL     OW55998   7.155   2.956   3.255 -0.0811 -0.0529  0.3743
18186SOL    HW155999   7.158   3.002   3.339 -1.9452  1.1570 -0.1641
18186SOL    HW256000   7.239   2.974   3.214  0.9865 -0.9114  2.0611
18187SOL     OW56001   0.230   2.529  11.109  0.5018 -0.3029  0.1254
18187SOL    HW156002   0.181   2.595  11.061  1.2389  0.6128  0.5891
18187SOL    HW256003   0.308   2.576  11.140  1.4264 -1.5804 -0.1811
18188SOL     OW56004   2.805   6.039   9.099  0.4546  0.2019  0.3938
18188SOL    HW156005   2.839   6.053   9.187  0.1313  0.3074  0.5022
18188SOL    HW256006   2.711   6.058   9.106  0.2132 -0.8755  0.2853
18189SOL     OW56007   6.430   5.318   6.612  0.1865 -0.2466 -0.3222
18189SOL    HW156008   6.377   5.267   6.551 -0.2564 -2.7391  1.9589
18189SOL    HW256009   6.492   5.255   6.648  1.0712  1.3487  1.0918
18190SOL     OW56010   2.330   0.550   4.770 -0.4860 -0.2892 -0.5024
18190SOL    HW156011   2.384   0.591   4.838 -0.3150 -0.2392 -0.6663
18190SOL    HW256012   2.310   0.621   4.709 -0.3847 -0.4005 -0.6647
18191SOL     OW56013   5.702   1.642   8.783 -0.1274 -0.1996 -0.1167
18191SOL    HW156014   5.776   1.699   8.804  0.1936 -1.0755  1.2536
18191SOL    HW256015   5.702   1.636   8.688  0.1665  1.6320 -0.2565
18192SOL     OW56016   6.200   1.472   8.202  0.2905 -0.4370 -0.1509
18192SOL    HW156017   6.280   1.515   8.232  0.9515 -1.5573 -0.2588
18192SOL    HW256018   6.214   1.379   8.222 -1.5185 -0.5143  1.0508
18193SOL     OW56019   6.452   6.670   9.213  0.3705 -0.2156  0.1688
18193SOL    HW156020   6.507   6.631   9.280  0.2154 -0.0184  0.4107
18193SOL    HW256021   6.477   6.624   9.132  1.7606  0.6883  0.0444
18194SOL     OW56022   0.562   6.177  11.205  0.2682  0.3619  0.0771
18194SOL    HW156023   0.499   6.248  11.194  0.3340  0.2055 -1.5779
18194SOL    HW256024   0.640   6.207  11.159  0.2588 -0.8227 -0.7630
18195SOL     OW56025   0.793   4.872   1.335 -0.1774  0.4020 -0.0666
18195SOL    HW156026   0.702   4.863   1.307  0.2561  0.3069 -1.5043
18195SOL    HW256027   0.800   4.962   1.365 -1.2079 -0.1164  1.8859
18196SOL     OW56028   0.059   4.941   1.650  0.6471  0.1580  0.3116
18196SOL    HW156029  -0.019   4.886   1.652  0.6744  0.1180  0.2852
18196SOL    HW256030   0.130   4.881   1.627  1.0259 -0.1948  2.2541
18197SOL     OW56031   2.248   0.497   2.779  0.0053 -0.5429 -0.2456
18197SOL    HW156032   2.153   0.496   2.791  0.0417 -1.7156  0.1130
18197SOL    HW256033   2.267   0.583   2.741 -0.6859  1.5529  3.6300
18198SOL     OW56034   2.834   1.307  11.126 -0.9176  0.4761  0.5538
18198SOL    HW156035   2.748   1.316  11.085 -0.0491  0.8681 -1.2560
18198SOL    HW256036   2.896   1.307  11.053  0.4746 -2.5457  1.5451
18199SOL     OW56037   2.476   2.774  11.264  0.4100  0.3199  0.5235
18199SOL    HW156038   2.409   2.730  11.317 -1.5315  1.7513 -0.6208
18199SOL    HW256039   2.510   2.705  11.207 -2.3469  0.1182 -1.0138
18200SOL     OW56040   2.281   5.997  11.730 -0.0370 -0.5426 -0.0073
18200SOL    HW156041   2.259   5.944  11.654  2.3694 -0.3227 -0.9478
18200SOL    HW256042   2.321   6.076  11.694  0.4617 -0.0795  1.4705
18201SOL     OW56043   5.807   4.009   9.489 -0.2549 -0.1379 -0.7366
18201SOL    HW156044   5.887   4.061   9.487  0.0387 -0.5253  0.2036
18201SOL    HW256045   5.832   3.925   9.450 -0.1183 -0.3626 -0.1713
18202SOL     OW56046   3.642   6.664   7.370 -0.3056  0.2268 -0.6770
18202SOL    HW156047   3.619   6.571   7.359 -1.7235  0.5824 -0.9323
18202SOL    HW256048   3.578   6.710   7.315 -1.2144  1.4995  1.3482
18203SOL     OW56049   6.152   0.418   5.706 -0.2433  0.2515  0.0771
18203SOL    HW156050   6.167   0.365   5.628 -1.0553  0.4104 -0.1912
18203SOL    HW256051   6.085   0.482   5.680  1.6442  2.3273 -0.0443
18204SOL     OW56052   4.606   6.372   2.410  0.2328  0.5423 -0.0574
18204SOL    HW156053   4.584   6.403   2.498  0.5487 -0.9195  0.5587
18204SOL    HW256054   4.674   6.432   2.379 -0.2123  1.3452  0.5022
18205SOL     OW56055   4.281   1.546  12.373  0.1792  0.1143  0.1407
18205SOL    HW156056   4.296   1.482  12.303 -0.1085  1.6583 -1.3904
18205SOL    HW256057   4.196   1.585  12.353  1.7835  3.4286 -1.1032
18206SOL     OW56058   3.680   2.811   5.536 -0.2855 -0.1734 -0.0285
18206SOL    HW156059   3.610   2.754   5.564 -0.3361 -0.2288 -0.2635
18206SOL    HW256060   3.716   2.769   5.458 -0.3477  0.1295 -0.2255
18207SOL     OW56061   1.580   2.000   7.166  0.4500  0.2444 -0.1553
18207SOL    HW156062   1.577   1.930   7.232  0.7229 -1.3968 -1.8058
18207SOL    HW256063   1.530   2.071   7.205 -0.5187 -1.1494  1.2837
18208SOL     OW56064   5.160   6.769   5.086 -0.1363  0.2975  0.6228
18208SOL    HW156065   5.222   6.728   5.026  0.4311  2.1043 -0.0929
18208SOL    HW256066   5.095   6.701   5.104  0.3489 -0.6711 -1.0946
18209SOL     OW56067   2.483   7.699   8.994 -0.4189  0.2566 -0.1656
18209SOL    HW156068   2.526   7.661   9.071 -0.1180  1.5278  0.3273
18209SOL    HW256069   2.414   7.754   9.030 -1.4609 -0.5321 -0.8988
18210SOL     OW56070   2.522   6.481   3.183 -0.4149  0.5467  0.2701
18210SOL    HW156071   2.498   6.460   3.093 -1.0794  1.2650  0.2696
18210SOL    HW256072   2.485   6.409   3.235 -1.0484  0.7405  0.0888
18211SOL     OW56073   2.731   5.772   5.822  0.4373 -0.4164 -0.0600
18211SOL    HW156074   2.637   5.791   5.831  0.2459 -0.9708 -0.7487
18211SOL    HW256075   2.765   5.844   5.769  0.1650 -0.7987 -0.7681
18212SOL     OW56076   5.977   4.148   6.432 -0.1775  0.3588  0.2585
18212SOL    HW156077   5.982   4.186   6.520 -1.5589 -0.4824  0.7291
18212SOL    HW256078   6.058   4.096   6.425 -0.0108  0.4983  0.9941
18213SOL     OW56079   6.802   3.094   3.490 -0.2647  0.0484 -0.0057
18213SOL    HW156080   6.748   3.161   3.533  0.5577  0.9403 -0.3194
18213SOL    HW256081   6.744   3.055   3.425 -0.7591  0.4615  0.1746
18214SOL     OW56082   0.671   3.485   3.718 -0.3560 -0.2353  0.6492
18214SOL    HW156083   0.652   3.563   3.771 -3.2750 -0.6028  0.2971
18214SOL    HW256084   0.710   3.519   3.638 -0.8202  0.7804  0.8433
18215SOL     OW56085   3.312   5.901   7.352  0.1248 -0.4564  0.5892
18215SOL    HW156086   3.402   5.870   7.346  0.3012  0.0367  0.6917
18215SOL    HW256087   3.319   5.993   7.377 -0.3802 -0.1855 -0.2192
18216SOL     OW56088   6.940   5.003   2.973 -0.3996  0.3924  0.4180
18216SOL    HW156089   6.982   5.026   3.057  0.4365  0.4029  0.0102
18216SOL    HW256090   6.925   5.088   2.931 -0.1394  0.3495  0.2390
18217SOL     OW56091   6.624   2.411   7.073 -0.2305 -0.0584  0.7179
18217SOL    HW156092   6.583   2.496   7.063  0.8625  0.7367  2.6054
18217SOL    HW256093   6.554   2.348   7.053 -0.9481  1.2193 -1.1028
18218SOL     OW56094   1.855   7.425   4.430 -0.5830  0.7779  0.4057
18218SOL    HW156095   1.824   7.392   4.515  2.0055 -1.2873  0.6652
18218SOL    HW256096   1.899   7.508   4.451  2.9908 -1.2764  1.8144
18219SOL     OW56097   0.843   5.878  12.036  0.5735  0.0734 -0.3517
18219SOL    HW156098   0.796   5.957  12.012  2.1490  0.9908 -0.5766
18219SOL    HW256099   0.881   5.847  11.954  0.1387 -0.8298 -0.2333
18220SOL     OW56100   3.564   7.409   3.545 -0.3358 -0.1347  0.0337
18220SOL    HW156101   3.554   7.383   3.636 -0.6775  0.7095  0.2406
18220SOL    HW256102   3.491   7.368   3.499 -1.7224  1.6200  0.6084
18221SOL     OW56103   7.488   2.157   1.473  0.2028  0.6873 -0.4170
18221SOL    HW156104   7.414   2.217   1.481 -0.5105 -0.1424 -0.6652
18221SOL    HW256105   7.565   2.213   1.477 -0.4619  1.7137 -1.5699
18222SOL     OW56106   0.865   4.346   7.444 -0.2977  0.1428 -0.2291
18222SOL    HW156107   0.940   4.329   7.388 -0.1588 -0.5836  0.1699
18222SOL    HW256108   0.847   4.262   7.487  0.4719  0.9708  1.8574
18223SOL     OW56109   4.872   5.096   7.527  0.2802  0.0508  0.1844
18223SOL    HW156110   4.839   5.055   7.606 -2.0553 -2.2528 -1.7861
18223SOL    HW256111   4.808   5.162   7.504  0.2982 -0.1212 -0.3908
18224SOL     OW56112   4.823   3.723   3.618  0.0052 -0.4100  0.1175
18224SOL    HW156113   4.913   3.719   3.650 -0.5788  0.4129  1.9687
18224SOL    HW256114   4.769   3.700   3.694 -1.3580 -0.9859 -0.9759
18225SOL     OW56115   6.983   1.923   9.682  0.1342 -0.4401 -0.9993
18225SOL    HW156116   6.907   1.982   9.684  0.4864  0.0418 -1.5460
18225SOL    HW256117   6.977   1.874   9.764  0.3433  1.0070 -0.0662
18226SOL     OW56118   4.188   5.502   1.385 -0.3670  0.1808 -0.3328
18226SOL    HW156119   4.225   5.570   1.441  0.6183  0.9977 -1.9196
18226SOL    HW256120   4.248   5.497   1.311 -0.3252 -2.5232 -0.2162
18227SOL     OW56121   4.385   4.413   0.835  0.1928  0.0939  0.0374
18227SOL    HW156122   4.369   4.468   0.912 -0.7103 -0.9976  0.6632
18227SOL    HW256123   4.298   4.379   0.812  0.6789 -0.7821 -0.5487
18228SOL     OW56124   4.137   5.477  11.890 -0.1665  0.3576 -0.2768
18228SOL    HW156125   4.172   5.395  11.854 -0.5430  0.9475 -2.1296
18228SOL    HW256126   4.050   5.455  11.921 -0.2521  0.0401 -0.7351
18229SOL     OW56127   3.411   4.624   9.326 -0.1732  0.0682  0.1446
18229SOL    HW156128   3.506   4.615   9.317 -0.0574  0.0873  1.1710
18229SOL    HW256129   3.375   4.547   9.283  0.1513  1.3244 -2.5293
18230SOL     OW56130   6.195   1.468   7.608  0.3232 -0.6995 -0.3818
18230SOL    HW156131   6.222   1.391   7.658  1.9255  0.2667  0.2739
18230SOL    HW256132   6.117   1.500   7.653  0.7195 -0.8661  0.4243
18231SOL     OW56133   3.371   2.469   7.538  0.3366  0.1935  0.4426
18231SOL    HW156134   3.406   2.390   7.579  1.2745  0.6851  0.6161
18231SOL    HW256135   3.423   2.541   7.575 -0.0657  0.8305 -0.1937
18232SOL     OW56136   1.577   6.152   8.785  0.7211  0.1944  0.5790
18232SOL    HW156137   1.551   6.122   8.698  0.1943  0.4058  0.6623
18232SOL    HW256138   1.496   6.155   8.835  1.1064 -0.4993  1.2589
18233SOL     OW56139   6.493   0.038   8.354  0.1340 -0.4153  0.4164
18233SOL    HW156140   6.496   0.102   8.425 -0.1204 -0.9546  0.9204
18233SOL    HW256141   6.425  -0.024   8.381  0.0830 -0.6589 -0.2712
18234SOL     OW56142   1.601   6.119  10.431 -0.3760 -0.1771  0.3549
18234SOL    HW156143   1.647   6.126  10.347  0.8486 -1.0989  0.9013
18234SOL    HW256144   1.632   6.194  10.482  1.1731 -1.1564  0.9683
18235SOL     OW56145   4.062   4.825   2.138  0.0236  0.0993  0.3858
18235SOL    HW156146   3.975   4.822   2.098 -0.5779 -0.3913  1.6944
18235SOL    HW256147   4.122   4.834   2.063 -0.9731 -1.8938 -0.7454
18236SOL     OW56148   4.538   4.999   0.768 -0.4349 -0.0729  0.0701
18236SOL    HW156149   4.461   5.032   0.815 -0.1380 -0.6457  0.9805
18236SOL    HW256150   4.522   4.905   0.758  0.9680 -0.5638  1.9401
18237SOL     OW56151   5.197   5.553   6.602 -0.0759 -0.3444  0.5145
18237SOL    HW156152   5.141   5.606   6.658  0.0503  0.6556 -0.2720
18237SOL    HW256153   5.274   5.608   6.587  0.4663 -1.1143  0.4007
18238SOL     OW56154   6.274   3.340   8.836 -0.3464 -0.6018  0.5522
18238SOL    HW156155   6.204   3.399   8.808 -1.4157 -0.9181  2.3795
18238SOL    HW256156   6.294   3.367   8.926  1.4195 -0.9695  0.2991
18239SOL     OW56157   0.402   1.199   7.932 -0.0205  0.3603  0.2387
18239SOL    HW156158   0.398   1.104   7.947 -0.8601  0.1406 -1.1804
18239SOL    HW256159   0.335   1.235   7.990 -0.2024  0.0053  0.2547
18240SOL     OW56160   4.485   6.159   1.455 -0.2065  0.4081  0.5322
18240SOL    HW156161   4.481   6.158   1.359 -1.8861 -0.9617  0.5701
18240SOL    HW256162   4.403   6.117   1.483  1.3088 -1.4386  2.5252
18241SOL     OW56163   5.439   7.909   2.139  0.4531  0.1384 -0.2050
18241SOL    HW156164   5.442   7.912   2.044 -0.4316  0.3382 -0.2370
18241SOL    HW256165   5.530   7.920   2.167  0.8657 -0.9633 -1.0409
18242SOL     OW56166   7.629   6.624   3.130 -0.8682 -0.2746 -0.4587
18242SOL    HW156167   7.653   6.570   3.205 -0.3140 -0.8834 -1.0562
18242SOL    HW256168   7.592   6.703   3.168 -1.6144 -1.0365  0.4401
18243SOL     OW56169   1.244   6.054   0.407 -0.0850  0.0263 -0.2473
18243SOL    HW156170   1.202   6.138   0.424  1.4283  0.6570  0.4822
18243SOL    HW256171   1.288   6.031   0.489  0.9102 -0.6581 -0.9462
18244SOL     OW56172   2.824   3.774  11.666 -0.3612  0.0065  0.5243
18244SOL    HW156173   2.770   3.749  11.591  1.8891  1.7034 -1.8401
18244SOL    HW256174   2.912   3.741  11.645  0.7919  2.3025  1.3648
18245SOL     OW56175   4.468   6.925   2.562  0.0394  0.7102  0.6923
18245SOL    HW156176   4.467   7.020   2.555  0.2523  0.7139  0.7056
18245SOL    HW256177   4.420   6.895   2.485  0.2908  0.8179  0.4933
18246SOL     OW56178   2.086   6.908   8.019 -0.2092  0.0027 -0.0086
18246SOL    HW156179   2.179   6.919   7.997  0.2900 -2.2130  0.7825
18246SOL    HW256180   2.069   6.976   8.084  0.6427  0.9222 -0.7083
18247SOL     OW56181   1.271   3.161  10.339  0.2640  0.2368  0.1716
18247SOL    HW156182   1.347   3.216  10.360  0.5362  0.5504 -1.5289
18247SOL    HW256183   1.305   3.094  10.280 -0.6214 -0.1427  0.0801
18248SOL     OW56184   5.205   4.445   6.234 -0.2685 -0.1627 -0.3211
18248SOL    HW156185   5.202   4.359   6.193  0.0091  0.5164 -1.8138
18248SOL    HW256186   5.239   4.428   6.322  0.9939 -1.4366 -1.0055
18249SOL     OW56187   2.788   6.041   5.755 -0.0758  0.0515  0.0194
18249SOL    HW156188   2.819   6.081   5.836 -1.6320  1.3806  0.0077
18249SOL    HW256189   2.866   6.033   5.700  0.8404 -0.0793  1.3082
18250SOL     OW56190   0.610   6.218   8.691 -0.2840 -0.1966 -0.0353
18250SOL    HW156191   0.666   6.166   8.749  2.5888  3.7424  1.2151
18250SOL    HW256192   0.665   6.234   8.614 -0.9930  1.0293 -0.3143
18251SOL     OW56193   4.792   0.918   0.902 -0.3508  0.4816  0.0884
18251SOL    HW156194   4.770   0.963   0.821 -1.1067  1.6327  0.9007
18251SOL    HW256195   4.879   0.950   0.925 -1.7008  3.3793  1.7887
18252SOL     OW56196   3.756   0.242   0.966  0.0881  0.4926 -0.1136
18252SOL    HW156197   3.754   0.215   0.874 -0.4058  0.3243 -0.0579
18252SOL    HW256198   3.847   0.269   0.981 -0.2424  2.3772 -1.1736
18253SOL     OW56199   1.282   4.377  11.338  0.0708  0.1292 -0.0753
18253SOL    HW156200   1.233   4.445  11.291  0.5947  0.5545 -0.0191
18253SOL    HW256201   1.371   4.411  11.341  0.3620 -0.6292 -0.1567
18254SOL     OW56202   3.333   7.407   2.436  0.0325 -0.2865 -0.2593
18254SOL    HW156203   3.386   7.484   2.415 -0.2282 -0.4488 -1.6666
18254SOL    HW256204   3.375   7.367   2.512  0.6593  0.7731 -0.0384
18255SOL     OW56205   5.381   2.193   5.130  0.1810 -0.0685  0.3372
18255SOL    HW156206   5.292   2.177   5.099  0.3054 -0.5957  0.2330
18255SOL    HW256207   5.435   2.189   5.051  0.5874 -2.1199  0.6468
18256SOL     OW56208   1.363   4.332   4.471  0.3599 -0.3556  0.5791
18256SOL    HW156209   1.389   4.420   4.501  0.5763 -0.9826  2.3860
18256SOL    HW256210   1.394   4.274   4.540 -1.3562 -1.6715  0.2964
18257SOL     OW56211   5.275   1.433   6.506  0.1005  0.1248  0.1844
18257SOL    HW156212   5.305   1.417   6.417  0.4297  0.2948  0.2646
18257SOL    HW256213   5.269   1.346   6.546  0.5320  0.0889  0.1801
18258SOL     OW56214   4.236   0.294   1.289  0.3779 -0.0984 -0.0967
18258SOL    HW156215   4.172   0.352   1.330 -0.0877  0.8807 -2.1009
18258SOL    HW256216   4.213   0.206   1.321 -0.3562  0.5236  1.1582
18259SOL     OW56217   4.633   1.774   5.441  0.3027 -0.1826 -0.3570
18259SOL    HW156218   4.556   1.724   5.414  0.2218 -1.0985  1.3794
18259SOL    HW256219   4.598   1.858   5.470 -0.0193 -0.4442  0.0350
18260SOL     OW56220   7.659   7.712   6.354  0.0102 -0.5952  0.1861
18260SOL    HW156221   7.692   7.698   6.442 -0.3057  0.6028  0.5150
18260SOL    HW256222   7.577   7.662   6.351  1.3746 -2.9672 -0.3971
18261SOL     OW56223   2.500   1.090   8.160 -0.1946 -0.8279  0.0866
18261SOL    HW156224   2.538   1.005   8.181 -0.8123 -0.5336  2.8114
18261SOL    HW256225   2.409   1.084   8.188 -0.3763  0.5871 -0.0971
18262SOL     OW56226   3.468   5.219   8.517 -0.0564 -0.0816  0.5710
18262SOL    HW156227   3.529   5.229   8.445  1.0506 -1.9314  1.1994
18262SOL    HW256228   3.409   5.149   8.489  0.4682 -0.9105  1.4883
18263SOL     OW56229   0.212   1.822   3.525 -0.0168 -0.4169 -0.1962
18263SOL    HW156230   0.220   1.917   3.522  1.9776 -0.5563 -1.2274
18263SOL    HW256231   0.191   1.802   3.616  0.6217  0.9664  0.2781
18264SOL     OW56232   5.748   1.429   8.198  0.4434  0.2159  0.0027
18264SOL    HW156233   5.672   1.410   8.253  0.2290 -1.1404 -0.7266
18264SOL    HW256234   5.743   1.365   8.128  2.5296 -0.2213  0.1944
18265SOL     OW56235   7.775   3.845  11.120  1.2146 -0.3847 -0.2305
18265SOL    HW156236   7.838   3.895  11.068  0.2916  2.2621  1.0464
18265SOL    HW256237   7.720   3.800  11.055  2.4881 -0.3095 -1.4057
18266SOL     OW56238   2.478   6.063   7.100 -0.2184 -0.0849  0.0137
18266SOL    HW156239   2.411   6.131   7.103  0.5863  0.7976 -1.0603
18266SOL    HW256240   2.491   6.038   7.192  0.1755  1.9516  0.5593
18267SOL     OW56241   3.152   3.207  11.141 -0.3702  0.3798  0.2017
18267SOL    HW156242   3.202   3.174  11.065  2.1992  0.4125  1.7497
18267SOL    HW256243   3.152   3.302  11.130  1.7614  0.5557  1.1382
18268SOL     OW56244   5.868   3.128   3.639 -0.2986  0.0920  0.5024
18268SOL    HW156245   5.860   3.193   3.708 -2.1810  0.4146  0.0286
18268SOL    HW256246   5.790   3.074   3.647 -0.8143  0.4160 -1.6240
18269SOL     OW56247   5.668   0.983   6.923 -0.5330 -0.0043 -0.6559
18269SOL    HW156248   5.611   0.912   6.952  1.3676 -1.0608  0.6644
18269SOL    HW256249   5.671   1.044   6.997  1.1915 -0.7191 -0.0931
18270SOL     OW56250   4.025   7.512   0.937  0.4061 -0.4391  0.3584
18270SOL    HW156251   4.050   7.514   0.844  1.5351  1.3126  0.6417
18270SOL    HW256252   3.966   7.586   0.948  0.2244 -0.6729  1.0238
18271SOL     OW56253   4.433   1.601   1.075  0.2190  0.3268  0.1733
18271SOL    HW156254   4.457   1.692   1.054 -3.1590  1.6754  1.4721
18271SOL    HW256255   4.338   1.597   1.061 -0.6212 -1.5626  4.6438
18272SOL     OW56256   0.231   5.597  10.482 -0.1097  0.7444  0.0014
18272SOL    HW156257   0.214   5.541  10.558  3.0367 -0.1813  0.1938
18272SOL    HW256258   0.155   5.585  10.425 -0.8170 -1.5696  1.3130
18273SOL     OW56259   5.243   2.072   8.093  0.2434  0.1032  0.1506
18273SOL    HW156260   5.246   2.098   8.185 -1.2488 -0.0160  0.2569
18273SOL    HW256261   5.332   2.084   8.062  1.0569 -0.9443  1.9146
18274SOL     OW56262   2.185   4.367   1.253 -0.6434 -0.6601 -0.2565
18274SOL    HW156263   2.185   4.463   1.249  2.2378 -0.5683 -0.0061
18274SOL    HW256264   2.201   4.347   1.345 -0.3241 -1.3589 -0.4623
18275SOL     OW56265   7.633   1.572   4.043 -0.6084  0.0517  0.0037
18275SOL    HW156266   7.621   1.595   3.951 -1.6962  1.7989  0.5244
18275SOL    HW256267   7.546   1.578   4.081 -0.2100 -0.8471  1.1225
18276SOL     OW56268   0.611   4.405   0.109  0.1977  0.1911  0.0618
18276SOL    HW156269   0.677   4.473   0.100  0.3184  0.0090 -0.4320
18276SOL    HW256270   0.529   4.452   0.126  0.3166  0.4465 -0.0821
18277SOL     OW56271   0.303   4.410  11.118 -0.1238  0.0564 -0.0181
18277SOL    HW156272   0.362   4.478  11.087  1.3925 -1.0951  0.2301
18277SOL    HW256273   0.318   4.407  11.213 -0.2740 -0.5234 -0.0077
18278SOL     OW56274   1.211   4.002   9.417  0.1706  0.2358 -0.7996
18278SOL    HW156275   1.209   3.966   9.506 -0.8128  0.6945 -0.6301
18278SOL    HW256276   1.277   4.071   9.422  0.3858  0.0168 -0.5251
18279SOL     OW56277   6.919   6.344   1.638 -0.5604 -0.6366  0.0548
18279SOL    HW156278   6.961   6.262   1.612 -1.7111 -1.3317  0.2897
18279SOL    HW256279   6.945   6.407   1.572 -0.5974 -1.4995 -0.7972
18280SOL     OW56280   6.297   6.674   3.885 -0.0834 -0.7186  0.0576
18280SOL    HW156281   6.226   6.644   3.828  0.3392 -2.9205  0.5887
18280SOL    HW256282   6.276   6.639   3.971  1.5027 -1.2202  0.2836
18281SOL     OW56283   1.917   1.910   5.379  0.0040 -0.0241 -0.2696
18281SOL    HW156284   1.967   1.905   5.460  0.8560 -2.3795 -0.8695
18281SOL    HW256285   1.836   1.864   5.398 -1.2960  2.2930  0.1723
18282SOL     OW56286   7.801   7.327   0.760  0.2673 -0.1850 -0.7074
18282SOL    HW156287   7.774   7.275   0.836 -1.5164  1.1200 -0.4139
18282SOL    HW256288   7.876   7.377   0.791 -0.1624 -0.0051  0.0513
18283SOL     OW56289   6.985   1.891   8.840  0.3901 -0.0278  0.0313
18283SOL    HW156290   7.020   1.895   8.930 -0.6403 -1.7141  0.5436
18283SOL    HW256291   6.901   1.936   8.845  1.6377  2.6326 -0.8555
18284SOL     OW56292   1.280   4.621   8.391 -0.1168 -0.4014  0.2594
18284SOL    HW156293   1.369   4.654   8.375  0.8544 -1.9127  2.1051
18284SOL    HW256294   1.223   4.697   8.379  1.5044  0.8029 -0.1185
18285SOL     OW56295   3.200   1.240   3.677  0.4456 -0.7470 -0.4449
18285SOL    HW156296   3.190   1.230   3.582 -0.0231 -0.9036 -0.3853
18285SOL    HW256297   3.285   1.281   3.688  0.7270 -1.1934 -0.9074
18286SOL     OW56298   3.523   7.748   6.925 -0.2445  0.2720 -0.1703
18286SOL    HW156299   3.611   7.710   6.932  0.6997  2.0664 -1.3219
18286SOL    HW256300   3.533   7.838   6.958 -1.8261  0.2933  0.3322
18287SOL     OW56301   2.497   2.708   7.263  0.5557 -0.2407  0.1325
18287SOL    HW156302   2.417   2.660   7.285 -0.2515  0.8877 -0.2173
18287SOL    HW256303   2.558   2.686   7.333 -0.9457  0.8899  1.9021
18288SOL     OW56304   2.612   1.844   1.628  0.2269  0.3054  0.2412
18288SOL    HW156305   2.646   1.787   1.560 -2.3864  0.7751 -1.6116
18288SOL    HW256306   2.612   1.932   1.589 -1.5991  0.5503  0.6530
18289SOL     OW56307   7.901   2.443   0.902 -0.1942  0.1345  0.4600
18289SOL    HW156308   7.992   2.471   0.913 -0.1250  0.0108  0.2119
18289SOL    HW256309   7.853   2.487   0.972 -0.4994  2.6582 -1.2187
18290SOL     OW56310   5.872   3.493   0.671 -0.2642  0.2367 -0.1157
18290SOL    HW156311   5.789   3.478   0.626 -0.3963  1.5059 -0.3297
18290SOL    HW256312   5.893   3.585   0.654  1.2793 -0.1015 -0.2012
18291SOL     OW56313   1.700   5.934   4.629 -0.5001  0.0958  0.3225
18291SOL    HW156314   1.673   5.843   4.613 -2.7928  0.8498 -0.4551
18291SOL    HW256315   1.627   5.972   4.678  0.0879  1.7176 -0.0165
18292SOL     OW56316   3.876   0.070   2.026 -0.1000 -0.0146  0.1070
18292SOL    HW156317   3.896   0.066   1.933 -1.8764  0.0286 -0.3044
18292SOL    HW256318   3.782   0.054   2.032 -0.1141  0.4536  1.8508
18293SOL     OW56319   2.796   1.347   4.438 -0.3545 -0.2673  0.4328
18293SOL    HW156320   2.740   1.285   4.391  1.0430 -0.9457 -0.3937
18293SOL    HW256321   2.868   1.295   4.471  0.7182  0.8579 -0.0493
18294SOL     OW56322   3.644   1.674   1.200  0.1788  0.3685 -0.1955
18294SOL    HW156323   3.658   1.765   1.174  1.4037 -0.1771 -1.5893
18294SOL    HW256324   3.645   1.625   1.118 -1.4411 -0.8267  0.4373
18295SOL     OW56325   7.122   5.952   4.235  0.4035  0.5597  0.0903
18295SOL    HW156326   7.063   5.880   4.216  0.7685  0.5558 -1.0918
18295SOL    HW256327   7.193   5.942   4.172  1.2121  1.0829  0.9056
18296SOL     OW56328   3.230   6.219   7.652 -0.5454 -0.0767  0.4521
18296SOL    HW156329   3.230   6.286   7.721 -0.5257  0.0415  0.3377
18296SOL    HW256330   3.139   6.214   7.624 -0.3038  1.0465 -0.6431
18297SOL     OW56331   5.109   6.673   6.382  0.5237  0.0735 -0.1500
18297SOL    HW156332   5.042   6.619   6.338 -0.7660  0.7767  0.8734
18297SOL    HW256333   5.151   6.613   6.443 -0.8127  0.1530  0.8932
18298SOL     OW56334   2.973   5.622   2.968 -0.2228  0.4786  0.2340
18298SOL    HW156335   3.019   5.705   2.979  2.4669 -0.9608  0.5932
18298SOL    HW256336   2.943   5.599   3.056 -1.1234  1.1006  0.1067
18299SOL     OW56337   2.196   0.275   5.214  0.2632  0.4080 -0.2562
18299SOL    HW156338   2.116   0.325   5.199  0.2980  0.3174 -0.7530
18299SOL    HW256339   2.200   0.213   5.142  0.9025  0.5652 -0.3618
18300SOL     OW56340   2.283   1.281   8.018  0.1272  0.2767  0.4375
18300SOL    HW156341   2.228   1.203   8.007 -0.3324  0.5519  0.7599
18300SOL    HW256342   2.291   1.291   8.113  1.2842 -0.1373  0.4035
18301SOL     OW56343   4.134   4.291   1.840 -0.5325 -0.1049  0.0039
18301SOL    HW156344   4.139   4.378   1.880  1.3935 -1.2990  2.6178
18301SOL    HW256345   4.073   4.243   1.895 -1.2749 -0.5704 -1.1880
18302SOL     OW56346   6.688   0.126   4.393  0.2516 -0.5572  1.0975
18302SOL    HW156347   6.628   0.134   4.319  1.8020  1.5455 -0.0468
18302SOL    HW256348   6.763   0.078   4.358  0.8100  0.0646  1.4082
18303SOL     OW56349   6.793   6.458  10.428 -0.1379 -0.2885 -0.4826
18303SOL    HW156350   6.719   6.403  10.456 -0.2352 -0.6358 -1.3780
18303SOL    HW256351   6.869   6.417  10.468 -0.4471  0.2386  0.6841
18304SOL     OW56352   2.424   5.012   0.955 -0.4955  0.9020  0.2100
18304SOL    HW156353   2.425   4.977   1.044 -2.9432  0.5369  0.1746
18304SOL    HW256354   2.459   5.100   0.964  0.5290  0.4183  1.2853
18305SOL     OW56355   4.404   7.478  10.439 -0.0834  0.4634  0.3232
18305SOL    HW156356   4.326   7.476  10.495 -0.4087  0.2601 -0.1333
18305SOL    HW256357   4.397   7.399  10.385  0.1154  0.7695 -0.1561
18306SOL     OW56358   1.838   6.205  10.880 -0.1415 -0.0754  0.3878
18306SOL    HW156359   1.894   6.283  10.879 -2.3629  1.6384  0.4245
18306SOL    HW256360   1.810   6.196  10.971  0.8332 -1.5204  0.5636
18307SOL     OW56361   3.337   2.367   6.155 -0.8485  0.3823 -0.0709
18307SOL    HW156362   3.422   2.354   6.198 -0.2111 -0.0045 -1.3681
18307SOL    HW256363   3.352   2.338   6.065 -1.8765  1.9327 -0.7903
18308SOL     OW56364   0.068   2.602   6.323  0.0620  0.6419 -0.0722
18308SOL    HW156365  -0.027   2.591   6.318  0.1997 -0.4158 -0.6924
18308SOL    HW256366   0.088   2.594   6.417 -0.2777 -1.1112 -0.1046
18309SOL     OW56367   1.861   2.865   9.049  0.0523  0.2508 -0.4104
18309SOL    HW156368   1.831   2.946   9.007  0.1696 -0.4173 -1.8401
18309SOL    HW256369   1.931   2.893   9.108 -0.5245  1.2984 -0.2047
18310SOL     OW56370   5.901   4.212  10.697  0.6701  0.7093  0.2282
18310SOL    HW156371   5.826   4.255  10.655  1.8086  1.4310 -1.1576
18310SOL    HW256372   5.864   4.134  10.739 -0.4439 -0.9406 -3.3784
18311SOL     OW56373   3.928   6.744  11.920 -0.1885  0.6129  0.3291
18311SOL    HW156374   3.947   6.781  12.007 -0.2172  0.6363  0.3247
18311SOL    HW256375   3.855   6.685  11.935  0.3425 -0.0246  0.4821
18312SOL     OW56376   0.379   6.068   8.704 -0.4347  0.0149 -0.6627
18312SOL    HW156377   0.368   6.068   8.799 -1.2987  1.3624 -0.7249
18312SOL    HW256378   0.457   6.121   8.688 -0.1221 -0.4499 -0.7030
18313SOL     OW56379   1.393   0.593   1.364  0.2570  0.0999  0.0957
18313SOL    HW156380   1.440   0.570   1.285 -1.4043  4.4308 -2.5275
18313SOL    HW256381   1.458   0.637   1.419  0.6997  0.2838 -0.5640
18314SOL     OW56382   7.358   7.159   9.130  0.3494 -0.3662 -0.1296
18314SOL    HW156383   7.348   7.235   9.187  0.8738  2.0325 -2.9923
18314SOL    HW256384   7.453   7.149   9.120  0.3824  1.6460 -3.2714
18315SOL     OW56385   1.451   4.363   6.635  0.4437  0.1282 -0.2036
18315SOL    HW156386   1.510   4.308   6.686  1.4728  2.1610  0.9130
18315SOL    HW256387   1.407   4.302   6.576  1.2182 -1.9199  1.2191
18316SOL     OW56388   7.448   4.673  10.932 -0.9734 -0.0488  0.1080
18316SOL    HW156389   7.397   4.754  10.931  0.5965  1.0485  1.7832
18316SOL    HW256390   7.392   4.611  10.979 -2.5403 -0.2475 -1.9075
18317SOL     OW56391   1.688   4.768   5.789 -0.4078 -0.2580  0.1575
18317SOL    HW156392   1.676   4.696   5.727 -1.6725  0.0705 -0.0027
18317SOL    HW256393   1.630   4.747   5.862  0.4918 -0.2444  0.8951
18318SOL     OW56394   1.081   0.205   3.898  0.2294  0.4426 -0.2352
18318SOL    HW156395   1.011   0.142   3.881 -0.7861  1.3166  0.5410
18318SOL    HW256396   1.154   0.151   3.930 -0.3238 -0.4123 -0.3725
18319SOL     OW56397   5.069   1.968   5.967 -0.4866  0.2348  0.1601
18319SOL    HW156398   5.047   1.888   5.920  0.0558  0.7613 -1.0181
18319SOL    HW256399   5.144   1.944   6.022  0.3238  0.1778 -0.9463
18320SOL     OW56400   4.240   4.878   0.141 -0.0024 -0.2002 -0.2346
18320SOL    HW156401   4.216   4.914   0.055  3.5242  1.0542 -0.8526
18320SOL    HW256402   4.253   4.955   0.196 -3.2340 -0.9934  1.9115
18321SOL     OW56403   1.156   6.676   3.555 -0.1099  0.1958 -0.6726
18321SOL    HW156404   1.247   6.659   3.532 -0.2580 -1.3840 -0.2141
18321SOL    HW256405   1.119   6.718   3.478  0.5757 -0.7521 -1.5448
18322SOL     OW56406   2.108   0.801   9.507 -0.1632 -0.3593 -0.3751
18322SOL    HW156407   2.084   0.847   9.588  0.1873  0.6795 -0.8355
18322SOL    HW256408   2.158   0.725   9.537 -0.5541 -0.3232  0.4121
18323SOL     OW56409   5.953   5.014   9.846  0.2764 -0.4419  0.5028
18323SOL    HW156410   6.027   4.975   9.892 -0.1124 -2.0451 -0.1756
18323SOL    HW256411   5.974   5.006   9.753 -0.6444 -0.7176  0.3091
18324SOL     OW56412   3.809   1.009   4.281  0.2364 -0.0620  0.1948
18324SOL    HW156413   3.769   1.065   4.214  0.6323 -1.5907 -1.3847
18324SOL    HW256414   3.848   1.071   4.343 -0.4183  1.4117 -0.7992
18325SOL     OW56415   6.724   6.078   6.227 -0.1491 -0.1563  0.1881
18325SOL    HW156416   6.675   6.030   6.293  1.3883 -0.2433  1.3165
18325SOL    HW256417   6.766   6.010   6.174  0.8339 -0.1020  0.8657
18326SOL     OW56418   7.034   5.567   8.330 -0.0960 -0.4634  0.3004
18326SOL    HW156419   7.028   5.621   8.408  0.2473  1.7771 -1.1297
18326SOL    HW256420   6.943   5.544   8.310 -0.2034 -0.8563  1.1986
18327SOL     OW56421   0.676   4.061   1.761  0.2004 -0.0955 -0.0292
18327SOL    HW156422   0.617   3.986   1.759  0.2995 -0.2103  0.7722
18327SOL    HW256423   0.667   4.096   1.850  0.4179  0.6290 -0.2842
18328SOL     OW56424   4.854   1.253   0.976  0.0037 -0.2322  0.5217
18328SOL    HW156425   4.943   1.269   1.006 -0.3764  1.7333  0.7570
18328SOL    HW256426   4.799   1.297   1.041 -1.0076  0.7581 -0.9364
18329SOL     OW56427   7.374   4.240   5.460  0.4414 -0.3973  0.0269
18329SOL    HW156428   7.296   4.295   5.460  1.4077  1.0031 -0.2010
18329SOL    HW256429   7.357   4.174   5.392 -1.6214 -1.7623  1.7424
18330SOL     OW56430   0.552   4.219  11.132  0.0528  0.5878 -0.4257
18330SOL    HW156431   0.629   4.171  11.101  0.6069  0.9245  0.4052
18330SOL    HW256432   0.487   4.206  11.062  1.5570  2.1452 -2.2219
18331SOL     OW56433   2.016   1.984   1.658  0.0470 -0.5188 -0.1582
18331SOL    HW156434   1.995   1.893   1.636  3.0535 -1.7427  1.4988
18331SOL    HW256435   2.098   1.979   1.708  0.7166  3.1877 -0.5930
18332SOL     OW56436   5.657   1.166   3.167 -0.6810  0.9314 -0.3104
18332SOL    HW156437   5.581   1.205   3.125 -1.0087 -0.3791 -1.0028
18332SOL    HW256438   5.621   1.097   3.224  0.0073 -0.7542 -1.8054
18333SOL     OW56439   1.358   7.328  11.763 -0.8863 -0.4713  0.0424
18333SOL    HW156440   1.355   7.267  11.689  2.2413  0.3454 -0.8933
18333SOL    HW256441   1.389   7.275  11.836  3.0119  0.0180 -1.0482
18334SOL     OW56442   0.366   3.319   9.679  0.0971  0.5067 -0.3894
18334SOL    HW156443   0.415   3.242   9.653 -0.0414  0.4402 -0.4577
18334SOL    HW256444   0.278   3.305   9.643 -0.5151 -0.2478  1.2776
18335SOL     OW56445   6.791   6.321   2.799  0.3231  0.4749  0.6002
18335SOL    HW156446   6.839   6.403   2.787  0.5698  0.2736  0.1827
18335SOL    HW256447   6.813   6.269   2.722 -0.2535  0.2227  0.5949
18336SOL     OW56448   5.149   1.205   6.599 -0.2116 -0.7988 -0.2629
18336SOL    HW156449   5.061   1.173   6.579 -0.4837 -1.5568  1.9145
18336SOL    HW256450   5.157   1.195   6.694  1.7574  0.4751 -0.2431
18337SOL     OW56451   2.604   5.384  12.304  0.6658 -0.2474  0.6138
18337SOL    HW156452   2.692   5.354  12.280 -0.1918 -1.9641 -0.6102
18337SOL    HW256453   2.559   5.305  12.334 -0.3024  0.7180  1.8255
18338SOL     OW56454   1.249   0.250   7.949 -0.4146  0.6513 -0.4626
18338SOL    HW156455   1.185   0.311   7.985 -1.0217 -0.1877 -0.0831
18338SOL    HW256456   1.202   0.167   7.942  0.3477  0.2561 -1.1092
18339SOL     OW56457   3.105   2.287   9.474 -0.4145  0.6129  0.2336
18339SOL    HW156458   3.010   2.284   9.468 -0.3030 -1.1792 -1.7773
18339SOL    HW256459   3.132   2.342   9.400  0.1449  0.3124  0.2108
18340SOL     OW56460   2.034   6.962   8.782  0.7738  0.5181  0.4437
18340SOL    HW156461   2.096   7.032   8.759  3.4256 -1.2645  1.6569
18340SOL    HW256462   2.054   6.892   8.720 -1.2970  0.4831 -0.2413
18341SOL     OW56463   3.743   5.514   0.516 -0.0903  0.0393  0.0227
18341SOL    HW156464   3.682   5.470   0.458  0.3279 -0.3931 -0.0951
18341SOL    HW256465   3.701   5.511   0.602  0.0026 -0.7341  0.0460
18342SOL     OW56466   5.548   3.896   7.354  0.1935  0.1065  0.0465
18342SOL    HW156467   5.628   3.851   7.381  0.3001  0.4478  0.2989
18342SOL    HW256468   5.564   3.988   7.373 -0.2914  0.1656  0.1723
18343SOL     OW56469   7.278   0.074   3.488 -0.3800 -0.0830 -0.4726
18343SOL    HW156470   7.204   0.033   3.444 -0.8319  1.4416 -1.1994
18343SOL    HW256471   7.309   0.140   3.426  0.8602  0.0908  0.3020
18344SOL     OW56472   1.237   0.134   4.124  0.0217  0.8566  0.0901
18344SOL    HW156473   1.307   0.123   4.189 -0.2203 -1.7996  0.0283
18344SOL    HW256474   1.170   0.071   4.150 -2.9799  4.0866  0.7925
18345SOL     OW56475   4.590   1.339  12.363 -0.2256 -0.8414  0.0536
18345SOL    HW156476   4.681   1.338  12.390 -0.4716  1.6151  1.2157
18345SOL    HW256477   4.580   1.261  12.309  2.5550 -1.1389 -0.1458
18346SOL     OW56478   1.736   0.341   0.527 -0.5125 -0.3228 -0.2314
18346SOL    HW156479   1.658   0.321   0.475  1.0905 -2.0308 -2.1528
18346SOL    HW256480   1.796   0.269   0.509  1.3534  0.6642  1.5876
18347SOL     OW56481   2.431   4.997   7.740 -1.0389  0.7931  0.2419
18347SOL    HW156482   2.484   4.921   7.765 -0.5279  0.6214 -1.2317
18347SOL    HW256483   2.382   5.019   7.818  0.2196  0.1160  1.2665
18348SOL     OW56484   6.066   7.833   0.629 -0.0995 -0.3603 -0.7304
18348SOL    HW156485   6.148   7.837   0.679 -0.1342  0.2854 -0.7182
18348SOL    HW256486   6.003   7.795   0.690 -0.3670  1.2601  0.0514
18349SOL     OW56487   2.801   3.202   6.372  1.0909  0.1039  0.0546
18349SOL    HW156488   2.815   3.162   6.286  0.0105 -0.7111  0.2364
18349SOL    HW256489   2.822   3.133   6.434 -1.5168 -0.4956  0.3608
18350SOL     OW56490   5.158   0.251   1.953 -0.2124  0.0519  0.6077
18350SOL    HW156491   5.239   0.276   1.998  0.0550  1.8507 -0.7858
18350SOL    HW256492   5.175   0.162   1.921  0.6384 -0.1623  1.5985
18351SOL     OW56493   6.498   4.436   2.306 -0.3610  0.2654 -0.1065
18351SOL    HW156494   6.433   4.436   2.378  0.4395  1.8086  0.6554
18351SOL    HW256495   6.517   4.528   2.291  0.3393 -0.0939 -1.5669
18352SOL     OW56496   7.296   3.668   2.203  0.3293  0.1834 -0.4817
18352SOL    HW156497   7.313   3.595   2.262 -0.1428  0.4223 -0.0416
18352SOL    HW256498   7.261   3.737   2.260  0.5582  0.6721 -0.9267
18353SOL     OW56499   7.361   6.868   8.443 -0.3518 -0.2899  0.0958
18353SOL    HW156500   7.331   6.789   8.398 -0.5427  0.3510 -0.9241
18353SOL    HW256501   7.281   6.905   8.481 -0.3211 -0.3859  0.2544
18354SOL     OW56502   2.254   2.881   9.308  0.1035 -0.0301 -0.1358
18354SOL    HW156503   2.239   2.871   9.214  0.3866  0.8490 -0.2813
18354SOL    HW256504   2.172   2.918   9.341 -0.7656 -2.1748  0.3260
18355SOL     OW56505   6.865   4.091   3.562  0.4851  0.1728  0.3294
18355SOL    HW156506   6.818   4.108   3.644 -0.4145  1.4738 -0.4229
18355SOL    HW256507   6.829   4.008   3.531 -1.4483  1.1667 -0.2607
18356SOL     OW56508   0.067   4.491   4.716  0.2820 -0.1236 -0.0981
18356SOL    HW156509   0.119   4.434   4.660  0.6149  1.4890 -1.5094
18356SOL    HW256510  -0.002   4.525   4.659  0.0048  0.7708  0.7212
18357SOL     OW56511   2.733   4.379   6.555 -0.4155  0.1390  0.1107
18357SOL    HW156512   2.780   4.408   6.477 -3.2698  1.3503 -1.2947
18357SOL    HW256513   2.698   4.293   6.531  1.7941 -1.2730  1.5464
18358SOL     OW56514   7.176   3.925   5.521 -0.0307  0.4490 -0.0224
18358SOL    HW156515   7.192   3.840   5.563  0.5547  0.4456 -0.2417
18358SOL    HW256516   7.088   3.917   5.484 -0.5686  0.4556  1.2028
18359SOL     OW56517   1.536   0.241   8.545 -0.1010  0.3210 -0.3860
18359SOL    HW156518   1.566   0.178   8.610  0.0142  0.9655  0.1906
18359SOL    HW256519   1.566   0.205   8.461  0.1451 -0.2810 -0.0428
18360SOL     OW56520   6.887   0.771   5.039 -0.2389  0.3186  0.1410
18360SOL    HW156521   6.896   0.825   5.118 -0.9513  0.7134 -0.0367
18360SOL    HW256522   6.971   0.780   4.994 -0.6376  2.0517 -0.3493
18361SOL     OW56523   5.318   3.306  11.751 -0.0366  0.0287  0.0476
18361SOL    HW156524   5.369   3.260  11.817 -0.6286 -0.9271 -0.1439
18361SOL    HW256525   5.227   3.285  11.772 -0.3925  1.8972  0.5309
18362SOL     OW56526   5.509   1.008   6.395 -0.1464  0.0598 -0.1066
18362SOL    HW156527   5.602   1.029   6.408  0.5820 -2.5601 -0.4429
18362SOL    HW256528   5.504   0.977   6.305 -1.2501 -0.2670  0.0571
18363SOL     OW56529   0.852   1.374   0.918  0.1610  0.2258  0.4367
18363SOL    HW156530   0.890   1.457   0.889  0.6813  0.9692  3.0034
18363SOL    HW256531   0.759   1.393   0.928  0.0958  0.1657 -0.0315
18364SOL     OW56532   5.153   2.471   3.713 -1.0742 -0.0224 -0.3094
18364SOL    HW156533   5.233   2.514   3.682  0.4854 -2.2576  0.3660
18364SOL    HW256534   5.101   2.457   3.634  1.6046 -3.1550 -1.7674
18365SOL     OW56535   1.828   7.765   1.714 -0.4115  0.0737 -0.0757
18365SOL    HW156536   1.885   7.827   1.760 -0.1205 -0.5438  0.4107
18365SOL    HW256537   1.739   7.790   1.740 -0.2887  0.2164  0.2067
18366SOL     OW56538   7.550   5.885   1.324 -0.7588  0.6040 -0.5454
18366SOL    HW156539   7.638   5.856   1.298 -0.4698 -0.9247  1.8872
18366SOL    HW256540   7.492   5.837   1.265 -0.0455 -0.0390 -0.7528
18367SOL     OW56541   7.141   0.368   9.644  0.1699 -0.2435 -0.0837
18367SOL    HW156542   7.072   0.427   9.615  0.2149  0.6423  1.5288
18367SOL    HW256543   7.221   0.403   9.604  0.1965  0.8022  0.8671
18368SOL     OW56544   0.706   2.912   0.909  0.6079  0.8277  0.6519
18368SOL    HW156545   0.724   3.003   0.933 -0.1198  0.9637  0.7132
18368SOL    HW256546   0.669   2.873   0.988  1.1148  0.4175  0.6876
18369SOL     OW56547   3.884   2.718   8.402 -0.0978  0.0795 -0.2777
18369SOL    HW156548   3.915   2.793   8.352 -0.0681 -0.1889 -0.6687
18369SOL    HW256549   3.789   2.731   8.409 -0.1563 -0.0824 -0.7476
18370SOL     OW56550   3.690   0.795   6.421  0.1994  0.2885  0.3735
18370SOL    HW156551   3.688   0.711   6.374 -0.8837  0.5470 -0.0826
18370SOL    HW256552   3.760   0.844   6.379  1.0589 -0.4987  0.8547
18371SOL     OW56553   3.191   2.252   9.141  0.0757  0.2407 -0.3034
18371SOL    HW156554   3.147   2.175   9.176 -0.7323  0.6570 -0.3791
18371SOL    HW256555   3.243   2.219   9.068 -0.1784 -0.2466 -0.2649
18372SOL     OW56556   7.288   5.609  11.538  0.2167  0.1278 -0.3484
18372SOL    HW156557   7.228   5.551  11.585 -1.5055  2.0726 -0.0099
18372SOL    HW256558   7.371   5.601  11.585  0.2596 -2.5149 -0.7306
18373SOL     OW56559   2.744   3.568   3.214 -0.0197 -0.3078  0.3929
18373SOL    HW156560   2.671   3.629   3.202  0.0561 -0.2581  0.1901
18373SOL    HW256561   2.717   3.489   3.167  0.5933  0.1417 -0.7492
18374SOL     OW56562   0.956   6.861  12.246 -0.6403  0.7452 -0.2403
18374SOL    HW156563   1.044   6.878  12.212 -0.2150  0.0775  0.4855
18374SOL    HW256564   0.899   6.865  12.169  0.3798 -1.4241 -1.1721
18375SOL     OW56565   2.601   6.915   0.844  0.2807  0.6526 -0.3231
18375SOL    HW156566   2.640   6.885   0.761  0.7233 -2.5070  0.8625
18375SOL    HW256567   2.507   6.900   0.833  0.3984 -0.3725 -0.1152
18376SOL     OW56568   0.280   1.510   3.454  0.3021  0.3240 -0.2210
18376SOL    HW156569   0.231   1.513   3.371 -0.0873  1.3676  0.0230
18376SOL    HW256570   0.230   1.568   3.512 -0.0173 -1.1979  1.0819
18377SOL     OW56571   0.586   1.310   3.166 -0.3954  0.2025  0.3772
18377SOL    HW156572   0.496   1.324   3.137 -0.9219  1.7027  2.4788
18377SOL    HW256573   0.618   1.397   3.187  0.4495 -0.5631  2.5580
18378SOL     OW56574   4.045   1.395   1.632 -0.6191 -0.6284  0.2674
18378SOL    HW156575   4.011   1.443   1.557  0.0316 -0.5882 -0.0091
18378SOL    HW256576   3.996   1.313   1.631 -3.4688  0.9132  2.1582
18379SOL     OW56577   1.300   7.650   7.519  0.8626  0.1064  0.0510
18379SOL    HW156578   1.244   7.706   7.465 -0.2971 -0.6935  0.3937
18379SOL    HW256579   1.317   7.703   7.597 -0.3769 -0.0517  0.4589
18380SOL     OW56580   0.258   2.396  11.919  0.6810 -0.2610 -0.4848
18380SOL    HW156581   0.312   2.474  11.908  1.4766 -0.5770  0.9756
18380SOL    HW256582   0.204   2.393  11.840  0.0568  2.2089 -0.2196
18381SOL     OW56583   7.503   3.791   3.057 -0.5682 -0.0153  0.1668
18381SOL    HW156584   7.508   3.876   3.012 -0.8666 -0.7657 -1.3604
18381SOL    HW256585   7.435   3.803   3.123  0.1712  1.2601  0.7347
18382SOL     OW56586   2.352   6.667   5.704  0.1865 -0.0739  0.2443
18382SOL    HW156587   2.325   6.759   5.697 -1.1371 -0.4431  0.2105
18382SOL    HW256588   2.271   6.620   5.725  0.6408 -1.3724 -0.7613
18383SOL     OW56589   3.990   6.529   7.931 -0.1097 -0.6635  0.6067
18383SOL    HW156590   3.908   6.534   7.980 -0.2665  0.3511  0.2658
18383SOL    HW256591   3.962   6.509   7.841  0.0279 -0.5085  0.5298
18384SOL     OW56592   7.780   1.609   4.496  0.1184 -0.1553  0.1190
18384SOL    HW156593   7.795   1.694   4.537 -0.5264 -0.1904  0.4419
18384SOL    HW256594   7.800   1.623   4.404 -0.3883  0.4558  0.0938
18385SOL     OW56595   1.865   4.014   9.372 -0.5123 -0.3131  0.0441
18385SOL    HW156596   1.916   4.048   9.445 -2.2656  1.1278  0.6852
18385SOL    HW256597   1.856   4.088   9.312 -1.4140 -0.6484 -0.2629
18386SOL     OW56598   0.385   4.077   1.813 -0.1121  0.0962 -0.4555
18386SOL    HW156599   0.435   4.151   1.849  0.6861 -0.7396  0.2027
18386SOL    HW256600   0.371   4.100   1.721 -0.7865  1.5361 -0.0283
18387SOL     OW56601   7.810   7.450   9.134  0.5974 -0.3540 -0.2162
18387SOL    HW156602   7.762   7.367   9.143 -2.6779  1.2154 -1.3863
18387SOL    HW256603   7.826   7.458   9.040 -0.5938  1.0238 -0.3324
18388SOL     OW56604   2.006   3.053   4.773 -0.4201  0.4439 -0.3458
18388SOL    HW156605   2.029   3.123   4.834 -1.1456  0.6274 -0.2746
18388SOL    HW256606   1.932   3.088   4.723 -2.1435 -1.0051  1.0633
18389SOL     OW56607   0.037   3.716   2.603 -0.5106  0.2256 -0.2671
18389SOL    HW156608   0.004   3.651   2.665  1.1062  1.2618  1.8210
18389SOL    HW256609   0.130   3.696   2.593 -0.7053  0.1301 -2.3844
18390SOL     OW56610   6.243   4.051   6.997 -0.2845  0.3937  0.1482
18390SOL    HW156611   6.222   3.958   7.006 -0.5455  0.5459  1.1804
18390SOL    HW256612   6.261   4.081   7.086  0.8070  1.1022 -0.2873
18391SOL     OW56613   3.148   0.847   0.521 -0.2567 -0.0913 -0.4232
18391SOL    HW156614   3.163   0.824   0.612  1.4058  0.6177 -0.4880
18391SOL    HW256615   3.073   0.907   0.524 -0.2801 -0.1513  0.4642
18392SOL     OW56616   2.267   4.072   6.970  0.6279 -0.5454  0.3716
18392SOL    HW156617   2.329   4.026   7.026 -0.3879 -2.4898  0.0030
18392SOL    HW256618   2.243   4.007   6.904 -1.9783  0.0212  0.6674
18393SOL     OW56619   1.962   4.440   8.109  0.0306  0.4606  0.4100
18393SOL    HW156620   1.966   4.516   8.051 -0.6879  1.6394  1.8169
18393SOL    HW256621   2.025   4.461   8.179  2.8688 -2.1036 -1.1642
18394SOL     OW56622   4.217   2.438   3.327 -0.9553 -0.4899  0.5106
18394SOL    HW156623   4.220   2.363   3.386  2.1791  0.0312  1.1786
18394SOL    HW256624   4.273   2.414   3.254 -0.4794  0.8855  0.3790
18395SOL     OW56625   7.602   5.025  10.194 -0.7862  0.2359  0.2899
18395SOL    HW156626   7.597   4.953  10.257 -2.4854  1.3793  1.5209
18395SOL    HW256627   7.519   5.070  10.201 -0.5928  1.1154 -1.9884
18396SOL     OW56628   6.693   5.059   5.801  0.1015 -0.5496 -0.1638
18396SOL    HW156629   6.777   5.034   5.764  0.9637  1.3285  0.3672
18396SOL    HW256630   6.701   5.040   5.894  0.1633  0.1403 -0.0228
18397SOL     OW56631   4.968   3.009   5.328  0.2652 -0.5380 -0.4733
18397SOL    HW156632   4.997   2.929   5.283 -0.0089 -1.8157  1.4870
18397SOL    HW256633   4.873   2.999   5.336  0.4639 -1.2427  1.8509
18398SOL     OW56634   3.796   5.090   2.545 -0.3948 -0.1849 -0.0391
18398SOL    HW156635   3.760   5.151   2.482 -0.5038 -0.1987  0.0092
18398SOL    HW256636   3.864   5.043   2.497 -0.6258 -0.3487 -0.2092
18399SOL     OW56637   0.709   7.610   4.207 -0.1485  0.0791  0.2005
18399SOL    HW156638   0.626   7.564   4.216 -1.1656  1.0623 -2.9547
18399SOL    HW256639   0.697   7.691   4.257 -0.6211 -0.3189  0.7468
18400SOL     OW56640   0.653   1.566   7.456 -1.0254  0.0829 -0.5601
18400SOL    HW156641   0.605   1.605   7.383 -1.7489  0.5573  0.1556
18400SOL    HW256642   0.658   1.636   7.521 -2.3057 -0.9852  0.7313
18401SOL     OW56643   2.786   5.778  11.968 -0.2882  0.1562 -0.4009
18401SOL    HW156644   2.707   5.772  12.021  1.7468 -0.4793  2.8139
18401SOL    HW256645   2.844   5.710  12.002  2.6714  2.3266 -0.6883
18402SOL     OW56646   1.265   1.665   3.480  0.1840  0.7528 -0.1450
18402SOL    HW156647   1.315   1.745   3.463  2.8612 -0.8694 -0.5816
18402SOL    HW256648   1.287   1.642   3.570  0.4154 -0.1193 -0.4205
18403SOL     OW56649   3.949   4.008  10.035  0.2003 -0.0179  0.0189
18403SOL    HW156650   3.931   4.087   9.983 -1.0817 -0.4537 -0.2303
18403SOL    HW256651   3.960   3.939   9.970  0.9385 -0.1273  0.2527
18404SOL     OW56652   7.509   1.574   0.266 -0.3586  0.2170  0.1161
18404SOL    HW156653   7.588   1.546   0.219 -0.8049 -2.0750  0.5895
18404SOL    HW256654   7.444   1.586   0.197 -1.1295 -3.5207 -0.0426
18405SOL     OW56655   4.673   3.330   1.997  0.4875 -0.1276 -0.0197
18405SOL    HW156656   4.663   3.419   2.031  0.4887 -0.1580  0.0583
18405SOL    HW256657   4.635   3.335   1.908  0.8147  0.0402 -0.1511
18406SOL     OW56658   3.771   5.622   8.553  0.5818 -0.6191  0.4515
18406SOL    HW156659   3.724   5.540   8.569 -0.4340 -0.0518  0.4349
18406SOL    HW256660   3.843   5.620   8.616  0.2907 -1.3058  0.7791
18407SOL     OW56661   4.085   4.054   3.032 -0.1363 -0.7000 -0.2050
18407SOL    HW156662   4.082   4.116   3.105  0.2437  0.9603 -1.5126
18407SOL    HW256663   4.163   4.079   2.983 -0.9922 -0.9916 -1.8008
18408SOL     OW56664   6.775   0.339   0.803 -0.0373  0.0198  0.4312
18408SOL    HW156665   6.845   0.333   0.737  0.2628 -0.2085  0.7669
18408SOL    HW256666   6.797   0.416   0.855  0.6720 -0.7809  1.3384
18409SOL     OW56667   2.990   5.201   5.551 -0.2331 -0.2584 -0.1975
18409SOL    HW156668   3.052   5.180   5.481  0.2627  2.5850 -0.7292
18409SOL    HW256669   2.916   5.242   5.506  0.1066  1.6579  0.8899
18410SOL     OW56670   4.921   1.528  10.259  0.0483  0.1844  0.5016
18410SOL    HW156671   4.964   1.442  10.255  0.6933  0.5104  0.1837
18410SOL    HW256672   4.834   1.510  10.295  0.0290 -0.6607  0.0636
18411SOL     OW56673   0.270   2.398   2.340  0.8326 -0.2752 -0.1219
18411SOL    HW156674   0.292   2.487   2.369 -0.8766  0.5696 -1.2622
18411SOL    HW256675   0.279   2.401   2.245  0.4037 -1.2263 -0.1968
18412SOL     OW56676   4.939   1.856   5.248  0.1331  0.6855  0.3411
18412SOL    HW156677   4.923   1.818   5.334  1.2933  0.6157  0.5454
18412SOL    HW256678   5.001   1.927   5.264  2.1926 -0.7735 -0.6717
18413SOL     OW56679   1.233   3.921   5.517 -0.3814  1.0024  0.3744
18413SOL    HW156680   1.185   3.895   5.439 -1.1243  1.0514  0.8029
18413SOL    HW256681   1.170   3.973   5.568  0.0935  0.9860  0.9933
18414SOL     OW56682   0.028   3.645  12.025  0.4636  0.2348  0.2572
18414SOL    HW156683  -0.038   3.698  12.069  0.8603  0.7877  0.2006
18414SOL    HW256684  -0.009   3.557  12.022  0.5621  0.1014  1.9868
18415SOL     OW56685   6.035   4.282   2.611  0.2594  0.3004  0.1958
18415SOL    HW156686   5.962   4.342   2.629  0.6699  0.5011  1.2941
18415SOL    HW256687   6.100   4.336   2.567  0.8438  0.8382  1.6449
18416SOL     OW56688   4.762   3.088   6.794  0.1426  0.6594  0.5603
18416SOL    HW156689   4.844   3.063   6.836  0.3455  1.4561  0.6612
18416SOL    HW256690   4.703   3.014   6.808  0.3210  0.7451  1.9333
18417SOL     OW56691   1.668   2.255   4.033  0.0443  0.7065 -1.1127
18417SOL    HW156692   1.758   2.283   4.046  0.5210 -0.7747 -1.1065
18417SOL    HW256693   1.674   2.167   3.998 -1.4087  0.2735 -0.3870
18418SOL     OW56694   2.375   0.221   5.610  0.2888 -0.6521 -0.8587
18418SOL    HW156695   2.468   0.232   5.631  0.5234  0.3073 -2.2667
18418SOL    HW256696   2.339   0.310   5.613 -0.1427 -0.7500 -2.2148
18419SOL     OW56697   1.264   1.397   4.421 -0.0402  0.7573  0.2995
18419SOL    HW156698   1.309   1.481   4.414  0.6089  0.3400 -0.9756
18419SOL    HW256699   1.172   1.420   4.436  0.3416  1.6462  1.5068
18420SOL     OW56700   1.371   2.240   5.640  0.9526  0.4394 -0.1545
18420SOL    HW156701   1.329   2.291   5.571  1.8509  0.1545 -0.9512
18420SOL    HW256702   1.383   2.301   5.712  0.6141  0.9327 -0.5130
18421SOL     OW56703   4.855   1.756   8.666  0.1795 -0.1529 -0.5076
18421SOL    HW156704   4.936   1.796   8.697 -1.7285  2.8450  1.0492
18421SOL    HW256705   4.799   1.830   8.643 -1.8477 -2.1356 -2.4052
18422SOL     OW56706   2.078   1.690   4.048  0.5105  1.2292 -0.5437
18422SOL    HW156707   2.119   1.634   4.114 -3.7959 -0.8454  0.7518
18422SOL    HW256708   2.023   1.631   3.996  0.8852  3.3756 -3.6759
18423SOL     OW56709   3.537   4.237  11.274  0.1637  0.5360  0.3628
18423SOL    HW156710   3.589   4.278  11.344  0.8155  0.9607 -0.3479
18423SOL    HW256711   3.479   4.307  11.243 -1.7773 -0.2699  1.9887
18424SOL     OW56712   1.968   6.914   2.990 -0.2532  0.1019  0.2861
18424SOL    HW156713   2.028   6.922   3.064  0.7092 -1.4378 -0.2773
18424SOL    HW256714   2.019   6.870   2.922 -2.3651 -2.5609  0.2482
18425SOL     OW56715   1.954   2.265   4.125  0.0703  0.2363  0.2652
18425SOL    HW156716   2.035   2.263   4.074 -0.2206 -0.8867 -0.1783
18425SOL    HW256717   1.960   2.345   4.177  2.5746 -0.9602  2.0195
18426SOL     OW56718   1.824   1.020   8.931 -0.1141  0.0900  0.8398
18426SOL    HW156719   1.832   0.928   8.908  0.3900  0.6616 -1.5637
18426SOL    HW256720   1.911   1.044   8.963 -0.3761 -0.3511  1.9200
18427SOL     OW56721   5.876   7.911   2.688  0.1463  0.8059 -0.3672
18427SOL    HW156722   5.880   7.832   2.634 -0.0951  1.8351 -1.9618
18427SOL    HW256723   5.816   7.889   2.759 -0.0696 -0.3810 -0.8935
18428SOL     OW56724   0.798   1.314  10.211 -0.1826  0.4317  0.4797
18428SOL    HW156725   0.851   1.288  10.287 -0.4103 -0.0130  0.4928
18428SOL    HW256726   0.779   1.406  10.225  1.8619  1.0071 -0.2872
18429SOL     OW56727   7.898   4.095  12.355 -0.0540 -0.1137  0.1885
18429SOL    HW156728   7.883   4.007  12.389 -2.0843  0.5778  1.3177
18429SOL    HW256729   7.918   4.147  12.433 -0.9075  0.7745 -0.1587
18430SOL     OW56730   1.312   0.030  10.970 -0.2356  0.0007  0.3438
18430SOL    HW156731   1.352  -0.016  10.897 -0.9894  1.0022 -0.7532
18430SOL    HW256732   1.361   0.112  10.976 -0.4011  0.0731  0.7263
18431SOL     OW56733   0.090   0.642   4.673 -0.2902  0.0829  0.0904
18431SOL    HW156734   0.153   0.587   4.720 -0.3749  0.5722  0.7833
18431SOL    HW256735   0.084   0.722   4.725 -1.1982  0.1964 -0.1713
18432SOL     OW56736   6.102   5.619   4.883  0.0606  0.1897 -0.0708
18432SOL    HW156737   6.047   5.677   4.935  2.0493  3.2794 -1.1203
18432SOL    HW256738   6.190   5.632   4.918  0.7130 -1.6550 -0.8917
18433SOL     OW56739   5.285   4.610   2.321 -0.0382  0.6829  0.4228
18433SOL    HW156740   5.315   4.623   2.411  0.2927 -0.5937  0.5109
18433SOL    HW256741   5.199   4.569   2.330  0.6454 -0.8433  0.1688
18434SOL     OW56742   6.935   1.976   6.598 -0.6459  0.1753  0.8578
18434SOL    HW156743   6.994   1.905   6.573 -0.1597  0.6402  0.6706
18434SOL    HW256744   6.848   1.937   6.593 -0.3764 -0.4375  0.8589
18435SOL     OW56745   1.783   3.826   2.771 -0.5025  0.0026  0.0467
18435SOL    HW156746   1.732   3.874   2.837  0.5916  1.0414  0.1679
18435SOL    HW256747   1.874   3.838   2.797 -0.0904 -0.3468 -1.1539
18436SOL     OW56748   7.517   3.668   9.665  0.7068 -0.2801  0.4945
18436SOL    HW156749   7.431   3.642   9.632  1.7920 -0.5280 -2.4333
18436SOL    HW256750   7.525   3.624   9.750 -1.6537 -0.9924  0.4160
18437SOL     OW56751   2.654   3.242   6.073 -0.3343 -0.0409  0.1180
18437SOL    HW156752   2.673   3.148   6.076  0.6917  0.1380 -0.5075
18437SOL    HW256753   2.587   3.255   6.141  2.5410 -0.5434  3.2883
18438SOL     OW56754   6.476   6.297   4.392 -0.2744 -0.0504  0.3480
18438SOL    HW156755   6.384   6.294   4.364 -0.6197 -0.0536  1.4381
18438SOL    HW256756   6.525   6.265   4.316 -1.0995  0.7365 -0.5450
18439SOL     OW56757   3.764   1.094   5.827 -0.6763  0.6966  0.0929
18439SOL    HW156758   3.776   1.181   5.866  1.0704  0.5821 -0.1152
18439SOL    HW256759   3.751   1.036   5.902 -0.3705  0.9292  0.3324
18440SOL     OW56760   0.584   7.559   3.656  0.1054  0.1273 -0.1347
18440SOL    HW156761   0.667   7.578   3.699 -1.5905  1.5898  2.8235
18440SOL    HW256762   0.577   7.625   3.587  1.2741  0.0890 -0.3133
18441SOL     OW56763   0.251   3.724   3.985  0.6691 -0.4475 -0.0622
18441SOL    HW156764   0.196   3.667   4.039 -0.7020  1.0348  0.1941
18441SOL    HW256765   0.240   3.811   4.023  1.7808  0.2025 -1.1421
18442SOL     OW56766   4.627   7.538   9.982 -0.2876 -0.3242 -0.2099
18442SOL    HW156767   4.653   7.523   9.891  0.9344  0.1810  0.0414
18442SOL    HW256768   4.531   7.543   9.979 -0.2038  1.5994 -1.7913
18443SOL     OW56769   3.277   7.750   3.960  0.6000  0.0002 -0.6602
18443SOL    HW156770   3.282   7.660   3.928  0.3356 -0.5770  0.8245
18443SOL    HW256771   3.274   7.804   3.881 -3.6886 -1.4922 -1.7565
18444SOL     OW56772   1.307   6.169   3.903  0.2303  0.6218  0.3840
18444SOL    HW156773   1.247   6.147   3.832  0.9458  0.1733 -0.0916
18444SOL    HW256774   1.269   6.247   3.944 -1.9869 -1.0053  1.6357
18445SOL     OW56775   0.385   1.039   7.677  0.3443  0.0721  0.1692
18445SOL    HW156776   0.462   1.009   7.630  1.9794  2.1633  1.3164
18445SOL    HW256777   0.337   0.960   7.700  1.4125 -1.1957 -1.7482
18446SOL     OW56778   6.802   2.489  10.900 -0.2029  0.0260  0.0416
18446SOL    HW156779   6.842   2.575  10.903 -1.2847  0.5549 -0.2742
18446SOL    HW256780   6.842   2.447  10.823 -0.0059  0.4071 -0.0658
18447SOL     OW56781   1.334   7.845  10.666  0.3047 -0.3343 -0.2556
18447SOL    HW156782   1.416   7.887  10.692  0.1347 -0.4914  0.5609
18447SOL    HW256783   1.358   7.789  10.592  0.4482  1.5233 -1.7099
18448SOL     OW56784   5.736   5.756  12.380 -0.1207 -0.0589  1.0594
18448SOL    HW156785   5.704   5.686  12.437  0.3363 -1.2609 -0.0944
18448SOL    HW256786   5.813   5.790  12.425  0.1865 -0.9289  1.2143
18449SOL     OW56787   7.695   6.296   3.942 -0.1650 -0.5267  0.0940
18449SOL    HW156788   7.663   6.319   3.855 -0.6175 -0.8061  0.1871
18449SOL    HW256789   7.783   6.335   3.946 -0.6475  0.5864 -0.0046
18450SOL     OW56790   0.354   3.307  10.805 -0.1159 -0.2096  0.3663
18450SOL    HW156791   0.380   3.384  10.754 -0.4841 -0.3859 -0.0960
18450SOL    HW256792   0.418   3.240  10.781 -0.4181 -0.3576 -0.0367
18451SOL     OW56793   3.740   6.625   3.640 -0.4553  0.7565  0.5560
18451SOL    HW156794   3.790   6.705   3.626  0.1330  0.7607  2.3646
18451SOL    HW256795   3.661   6.636   3.586  1.3839  0.7676 -2.3462
18452SOL     OW56796   4.597   3.339   6.578 -0.2106 -0.2161 -0.2089
18452SOL    HW156797   4.524   3.311   6.633 -0.4363 -1.0614 -0.9173
18452SOL    HW256798   4.566   3.419   6.536 -0.8750 -0.7667 -0.7827
18453SOL     OW56799   1.612   6.700   0.871 -0.0617  0.3628  0.1575
18453SOL    HW156800   1.639   6.777   0.922 -1.9729  0.7034  0.7295
18453SOL    HW256801   1.517   6.709   0.864 -0.2677 -1.7432 -0.1264
18454SOL     OW56802   6.881   4.208  12.150 -0.0415 -0.1515  0.2696
18454SOL    HW156803   6.817   4.269  12.188 -0.1971 -0.2713  0.2002
18454SOL    HW256804   6.875   4.223  12.055 -1.6850 -1.8220  0.0509
18455SOL     OW56805   6.290   1.820   6.808  0.6744  0.1648  0.6131
18455SOL    HW156806   6.280   1.745   6.750  1.0209 -0.0229  0.7944
18455SOL    HW256807   6.314   1.782   6.892  0.6202  0.4660  0.7649
18456SOL     OW56808   6.998   3.122   5.157  0.1509  0.7164 -0.1844
18456SOL    HW156809   7.028   3.210   5.132  1.0571 -0.2347 -2.8201
18456SOL    HW256810   7.058   3.096   5.227  2.1377  0.9824 -1.6710
18457SOL     OW56811   5.601   5.598   6.715 -0.0509 -0.0117 -0.0995
18457SOL    HW156812   5.584   5.583   6.808  2.3683 -0.4584  0.3385
18457SOL    HW256813   5.626   5.691   6.710  1.3621 -0.3765 -0.0228
18458SOL     OW56814   4.567   4.088   8.647  0.1381 -0.4052 -0.5416
18458SOL    HW156815   4.502   4.017   8.648 -0.6385  0.2771  0.7778
18458SOL    HW256816   4.529   4.154   8.589 -1.6343  1.0445  2.0607
18459SOL     OW56817   0.630   0.767  11.221  0.5199  0.1342  0.4965
18459SOL    HW156818   0.684   0.846  11.218  2.1817 -0.9420  0.8069
18459SOL    HW256819   0.673   0.706  11.161  0.0830 -1.0324  1.3257
18460SOL     OW56820   5.134   2.517   6.013  0.1945 -0.0160  0.0841
18460SOL    HW156821   5.086   2.471   6.082  0.6063 -0.7045 -0.0864
18460SOL    HW256822   5.204   2.564   6.060  0.1880 -0.1054  0.1832
18461SOL     OW56823   1.739   6.356  10.563 -0.2515 -0.3172 -0.0279
18461SOL    HW156824   1.831   6.329  10.560 -0.5819 -1.4909 -0.1332
18461SOL    HW256825   1.733   6.431  10.504  0.9330  0.7479  1.1323
18462SOL     OW56826   0.976   4.663   4.736 -0.1059  0.2677  0.3621
18462SOL    HW156827   0.987   4.584   4.684 -0.7052  0.3522  0.1024
18462SOL    HW256828   0.997   4.734   4.675  0.0311  0.3305  0.4810
18463SOL     OW56829   5.073   3.321   6.250  0.5093  0.4284  0.1572
18463SOL    HW156830   5.167   3.301   6.253  0.6776  1.1518 -0.1010
18463SOL    HW256831   5.035   3.250   6.198  0.8881  0.0451  0.3967
18464SOL     OW56832   6.824   2.314   4.979  0.0920  0.1916 -0.0875
18464SOL    HW156833   6.894   2.259   4.945  1.4084  2.0524 -0.5499
18464SOL    HW256834   6.746   2.260   4.974  1.6819 -2.5192  1.8585
18465SOL     OW56835   5.937   5.066   5.943 -0.2592 -0.4181  0.2238
18465SOL    HW156836   5.945   5.060   5.848 -0.3204 -0.5675  0.2280
18465SOL    HW256837   5.939   4.976   5.973 -1.2873 -0.4379  0.2785
18466SOL     OW56838   7.418   4.329   9.746 -0.0717  0.3814  0.0766
18466SOL    HW156839   7.510   4.305   9.755  0.2469  1.3759 -0.4229
18466SOL    HW256840   7.380   4.314   9.832  0.4804 -0.3210  0.2070
18467SOL     OW56841   1.936   4.754   7.015 -0.0356 -0.0418 -0.3215
18467SOL    HW156842   2.019   4.740   7.061 -1.0265 -0.6725  1.3829
18467SOL    HW256843   1.905   4.839   7.046  0.1714  0.4054 -1.3075
18468SOL     OW56844   7.874   4.011   9.226 -0.0957  0.2860  0.7392
18468SOL    HW156845   7.815   3.940   9.203  0.0501 -0.2246  1.8699
18468SOL    HW256846   7.896   4.052   9.142  0.4832 -1.5220 -0.0488
18469SOL     OW56847   2.058   7.742   8.877 -0.2520 -0.0989 -0.0009
18469SOL    HW156848   2.115   7.738   8.799 -1.1133  2.1025 -0.8038
18469SOL    HW256849   2.114   7.710   8.948  0.9596 -0.9968 -1.2762
18470SOL     OW56850   2.606   2.176   9.315  0.7674 -0.1745 -0.2307
18470SOL    HW156851   2.545   2.140   9.380  0.5235 -1.7093 -1.2685
18470SOL    HW256852   2.554   2.242   9.269  0.8959  0.8232  0.9830
18471SOL     OW56853   7.551   5.887   8.502 -0.0750 -0.8163  0.2615
18471SOL    HW156854   7.594   5.841   8.430  1.8795 -0.9338  1.4251
18471SOL    HW256855   7.601   5.862   8.580 -1.7681 -0.2478  1.6006
18472SOL     OW56856   0.165   7.356   5.519 -0.0704  0.0973  0.1216
18472SOL    HW156857   0.256   7.375   5.543 -0.6997 -0.1013  3.0925
18472SOL    HW256858   0.130   7.310   5.595 -2.7057  0.2465 -0.9051
18473SOL     OW56859   4.424   5.267   4.308  0.1828 -0.3675 -0.1313
18473SOL    HW156860   4.351   5.207   4.326  0.6438 -0.5276  1.2982
18473SOL    HW256861   4.502   5.218   4.332  0.5347  1.0121  1.8018
18474SOL     OW56862   3.166   0.211   5.268 -0.2893 -0.3026  0.0200
18474SOL    HW156863   3.072   0.212   5.285 -0.6268 -2.8569 -1.2273
18474SOL    HW256864   3.180   0.282   5.205 -1.7399 -1.0094 -1.1657
18475SOL     OW56865   4.209   0.279   4.297  0.4970 -0.0638 -0.5431
18475SOL    HW156866   4.148   0.217   4.338 -0.0247  0.3891 -0.6186
18475SOL    HW256867   4.265   0.309   4.368 -1.3090  1.8032  0.1872
18476SOL     OW56868   2.870   7.540   7.674  0.1336 -0.1542  0.1476
18476SOL    HW156869   2.805   7.592   7.722 -1.2477  0.3337 -2.1208
18476SOL    HW256870   2.829   7.455   7.662  1.5216 -1.1453  1.9662
18477SOL     OW56871   6.379   3.879   2.323  0.4339 -0.7475 -0.3917
18477SOL    HW156872   6.408   3.959   2.277 -0.5914  0.6896  1.3221
18477SOL    HW256873   6.436   3.874   2.399 -0.1241 -1.1202  0.0025
18478SOL     OW56874   3.524   5.465   0.702 -0.2461  0.4518  0.1760
18478SOL    HW156875   3.533   5.517   0.782 -1.9893 -0.2011  0.8176
18478SOL    HW256876   3.431   5.443   0.697  0.0128 -0.4327 -1.4668
18479SOL     OW56877   7.000   1.920  11.175 -0.6560 -0.1063  0.2097
18479SOL    HW156878   6.972   1.865  11.102  0.0689 -0.3303  0.0836
18479SOL    HW256879   7.030   2.001  11.134 -1.9161  0.4735  0.4145
18480SOL     OW56880   7.836   4.140   6.521 -0.4902  0.2844 -0.4917
18480SOL    HW156881   7.745   4.155   6.498 -0.3158  2.8736  0.1335
18480SOL    HW256882   7.877   4.227   6.515  0.9497  0.0742  3.2225
18481SOL     OW56883   1.292   2.799   6.203  0.1349  0.3777  0.1786
18481SOL    HW156884   1.350   2.874   6.192  0.8730 -0.2953 -0.7297
18481SOL    HW256885   1.237   2.821   6.278  2.2531  0.6431  1.7545
18482SOL     OW56886   2.276   1.066   2.496 -0.1367  0.1179  0.0817
18482SOL    HW156887   2.287   1.076   2.401  1.5856 -0.7910  0.1408
18482SOL    HW256888   2.211   1.131   2.519  0.9955  1.8823 -1.4155
18483SOL     OW56889   5.231   6.628  10.111  0.5988 -0.2108 -0.3993
18483SOL    HW156890   5.314   6.671  10.132 -0.0327  0.3393  1.1678
18483SOL    HW256891   5.213   6.571  10.186  0.2028 -1.3630 -1.3266
18484SOL     OW56892   5.531   2.146  11.830  0.1473  0.0566  0.0017
18484SOL    HW156893   5.471   2.157  11.904  0.2016  0.7954 -0.0568
18484SOL    HW256894   5.540   2.051  11.820 -2.3078 -0.1317 -1.0449
18485SOL     OW56895   7.621   1.300   0.451 -0.0586  0.1420  0.1351
18485SOL    HW156896   7.669   1.348   0.384 -0.3904  0.2380 -0.0384
18485SOL    HW256897   7.555   1.251   0.403 -0.6914  0.6794  0.4323
18486SOL     OW56898   4.305   4.861   7.508 -0.0399 -0.1910 -0.1909
18486SOL    HW156899   4.309   4.896   7.597 -0.0121  1.4250 -0.7982
18486SOL    HW256900   4.224   4.810   7.507  0.5839 -1.2802  1.1020
18487SOL     OW56901   4.752   0.122   5.390  0.3876 -0.3537  0.3517
18487SOL    HW156902   4.801   0.047   5.423  0.1854 -1.4597 -1.6868
18487SOL    HW256903   4.807   0.159   5.320 -0.9532 -0.7131 -0.9569
18488SOL     OW56904   7.702   2.456   6.931 -0.2918  0.1613 -0.0106
18488SOL    HW156905   7.613   2.447   6.897 -1.1235 -2.2141  2.4299
18488SOL    HW256906   7.730   2.543   6.903 -2.6847  0.3065 -2.3336
18489SOL     OW56907   6.605   2.383   8.165 -0.2894 -0.0711 -1.0091
18489SOL    HW156908   6.689   2.339   8.155 -1.1723 -1.5434 -2.3900
18489SOL    HW256909   6.568   2.346   8.245  0.3280  0.5356 -0.4309
18490SOL     OW56910   0.842   7.242  12.284  0.4943 -0.0456  0.3816
18490SOL    HW156911   0.781   7.312  12.306 -0.5342 -0.3785 -1.1830
18490SOL    HW256912   0.787   7.163  12.283  1.6052 -0.8909  2.0049
18491SOL     OW56913   2.428   6.169   7.559 -0.3967  0.0780  0.0137
18491SOL    HW156914   2.516   6.157   7.523 -0.9315 -0.6836 -1.0990
18491SOL    HW256915   2.391   6.242   7.510 -0.1112  0.9470  1.0528
18492SOL     OW56916   4.487   3.835   7.727 -0.4282  0.2127 -0.1223
18492SOL    HW156917   4.553   3.774   7.761  0.3167  1.1776  0.1935
18492SOL    HW256918   4.537   3.912   7.699 -1.3622  0.7183 -0.4429
18493SOL     OW56919   5.254   2.905   2.057 -0.4640  0.3716  0.0170
18493SOL    HW156920   5.235   2.998   2.052 -0.5345  0.3232 -0.9672
18493SOL    HW256921   5.226   2.878   2.144 -0.1264  1.3373  0.4296
18494SOL     OW56922   7.253   0.963  11.816  0.6882  0.1544 -0.0982
18494SOL    HW156923   7.170   0.949  11.770  1.4268 -1.4370 -1.0338
18494SOL    HW256924   7.229   0.961  11.909 -0.5180  1.2652 -0.3605
18495SOL     OW56925   5.404   5.956   0.063  0.1323  0.3765 -0.6834
18495SOL    HW156926   5.408   5.955   0.159  2.1860 -3.6232 -0.5993
18495SOL    HW256927   5.327   5.903   0.042  0.0645  0.6930 -1.2585
18496SOL     OW56928   6.908   2.163   8.665 -0.2552  0.0221 -0.3265
18496SOL    HW156929   6.852   2.122   8.732 -1.0439  0.0368 -0.9555
18496SOL    HW256930   6.851   2.171   8.588  1.1379 -1.7475 -1.6423
18497SOL     OW56931   6.776   1.548   0.053  0.4239 -0.1239  0.0290
18497SOL    HW156932   6.731   1.631   0.036  2.7890  1.9724  2.9792
18497SOL    HW256933   6.716   1.498   0.108 -0.4314  0.2392 -0.5564
18498SOL     OW56934   4.321   5.767  10.270  0.8412 -0.4695 -0.5524
18498SOL    HW156935   4.317   5.673  10.287  0.3649 -0.5027 -0.8334
18498SOL    HW256936   4.414   5.787  10.271  1.1214 -1.3696 -2.8031
18499SOL     OW56937   4.069   4.004  12.197  0.5390  0.1937 -0.0035
18499SOL    HW156938   4.002   4.066  12.167  0.2429  0.3597  0.9601
18499SOL    HW256939   4.149   4.030  12.151  0.2721  0.9058 -0.0749
18500SOL     OW56940   0.088   4.649   2.654  0.2217 -0.2974  0.1291
18500SOL    HW156941   0.044   4.582   2.602  0.1184 -0.3831  0.3264
18500SOL    HW256942   0.106   4.606   2.738 -1.8714  0.5936  1.1076
18501SOL     OW56943   4.622   5.380   7.524 -0.4926 -0.1091 -0.3349
18501SOL    HW156944   4.596   5.473   7.523 -1.2034 -0.2400  1.6206
18501SOL    HW256945   4.693   5.375   7.460 -0.8005  1.6736 -0.8875
18502SOL     OW56946   3.882   6.920   2.002  0.1864  0.3496 -0.0105
18502SOL    HW156947   3.928   6.996   1.967  1.0977 -0.0542  0.2621
18502SOL    HW256948   3.846   6.949   2.085  0.6661  0.4478  0.1669
18503SOL     OW56949   0.172   7.492   4.077 -0.2608 -0.2237  0.1211
18503SOL    HW156950   0.142   7.577   4.109  0.7062 -0.1278  0.8209
18503SOL    HW256951   0.132   7.428   4.136 -1.6811 -0.3363 -0.9225
18504SOL     OW56952   2.935   3.209   9.851  0.3976 -0.6617  0.0951
18504SOL    HW156953   2.938   3.126   9.803  0.5777  0.1034 -1.2562
18504SOL    HW256954   2.863   3.258   9.811 -1.4354 -1.1063  2.5609
18505SOL     OW56955   2.801   0.056   4.081  0.7387  0.2813 -0.0928
18505SOL    HW156956   2.886   0.026   4.113  0.7707  1.3803  0.9368
18505SOL    HW256957   2.759  -0.023   4.047  1.3503 -0.6757  1.2704
18506SOL     OW56958   6.159   4.251  10.697  0.0918  0.4593 -0.2672
18506SOL    HW156959   6.191   4.161  10.684  0.5894  0.3861  1.2575
18506SOL    HW256960   6.064   4.243  10.692 -0.0277 -0.6241  2.0705
18507SOL     OW56961   4.321   5.746   1.121 -0.0129 -0.2256 -0.0403
18507SOL    HW156962   4.386   5.686   1.159  0.1687  0.8203  1.3697
18507SOL    HW256963   4.356   5.833   1.139 -1.7749  0.3594  0.6672
18508SOL     OW56964   4.205   2.141   3.167  0.0883 -0.3314  0.6299
18508SOL    HW156965   4.236   2.115   3.254 -0.0175  0.9611  1.0742
18508SOL    HW256966   4.248   2.226   3.151  0.4646 -0.7641 -0.7801
18509SOL     OW56967   4.135   6.124   8.910 -0.3528  0.0097  0.3360
18509SOL    HW156968   4.143   6.029   8.903  2.0779 -0.0420  2.4917
18509SOL    HW256969   4.096   6.138   8.996 -0.8181  0.9882 -0.0220
18510SOL     OW56970   2.360   7.113   5.172 -0.2164  0.2000  0.4894
18510SOL    HW156971   2.326   7.171   5.104  1.4034  0.9636  0.2662
18510SOL    HW256972   2.447   7.088   5.140 -0.6912 -2.0359  0.7854
18511SOL     OW56973   3.685   7.891   9.821 -0.0671 -0.3026 -0.3424
18511SOL    HW156974   3.768   7.857   9.789  0.0934  1.0379 -1.4137
18511SOL    HW256975   3.656   7.952   9.753 -0.6846  1.1528  1.1649
18512SOL     OW56976   1.388   4.898   4.650  0.2159  0.6271  0.0840
18512SOL    HW156977   1.483   4.886   4.655 -0.0506 -2.3494 -0.3719
18512SOL    HW256978   1.358   4.895   4.740  0.4147 -0.2123  0.1315
18513SOL     OW56979   3.460   5.398   6.213 -0.5816  0.0469 -0.0595
18513SOL    HW156980   3.535   5.447   6.248 -0.9095 -0.1536  0.9598
18513SOL    HW256981   3.496   5.312   6.190 -0.1675  0.4868 -1.1342
18514SOL     OW56982   1.848   5.523  11.121  0.0771 -0.4726  0.0305
18514SOL    HW156983   1.877   5.437  11.089 -0.9946 -1.6326  2.0111
18514SOL    HW256984   1.810   5.505  11.206  0.2449  2.0777  0.7081
18515SOL     OW56985   3.601   6.566   8.666  0.2433  0.2727 -0.0226
18515SOL    HW156986   3.657   6.561   8.588  1.2371 -2.6419  0.7545
18515SOL    HW256987   3.526   6.511   8.646 -0.6703  1.3757  0.2604
18516SOL     OW56988   2.328   0.483   5.621 -0.5375  0.5344 -0.3635
18516SOL    HW156989   2.364   0.524   5.699 -3.3737  0.6789  1.0203
18516SOL    HW256990   2.334   0.551   5.554 -3.0435  2.6006  1.2740
18517SOL     OW56991   7.648   1.154   4.389 -0.2755  0.4559 -0.0454
18517SOL    HW156992   7.693   1.130   4.470 -1.2814  0.0756  0.4111
18517SOL    HW256993   7.607   1.238   4.409  0.6626  1.0785 -0.6410
18518SOL     OW56994   7.398   2.233   1.003 -0.1032  0.5066 -0.0768
18518SOL    HW156995   7.467   2.199   1.061 -0.1593  1.2572  0.4355
18518SOL    HW256996   7.439   2.233   0.916  0.2410  0.1004  0.0769
18519SOL     OW56997   6.814   2.769  11.936 -0.2448  0.0665  0.0273
18519SOL    HW156998   6.809   2.802  12.025  0.3684 -0.2211  0.1783
18519SOL    HW256999   6.794   2.844  11.881  1.6474  0.8582  0.3496
18520SOL     OW57000   1.113   0.299   6.152 -0.6886 -0.0115 -0.0093
18520SOL    HW157001   1.139   0.214   6.189  1.7151  1.2128  1.3011
18520SOL    HW257002   1.031   0.319   6.196 -0.1592 -0.6690  1.3683
18521SOL     OW57003   0.001   7.665  12.031 -0.0255  0.5223 -0.3535
18521SOL    HW157004   0.014   7.572  12.050  0.3226  1.0663  2.5723
18521SOL    HW257005   0.040   7.678  11.945  0.4379 -1.8989 -0.5832
18522SOL     OW57006   0.643   4.797   6.509 -0.2446 -0.4065  0.2346
18522SOL    HW157007   0.610   4.738   6.577  1.1111  0.0472  1.3357
18522SOL    HW257008   0.564   4.835   6.470 -1.1536 -2.7621 -0.3952
18523SOL     OW57009   1.161   6.961   6.326  0.5720  0.0862 -0.0019
18523SOL    HW157010   1.194   6.900   6.393 -0.4869 -0.8058 -0.2619
18523SOL    HW257011   1.104   7.020   6.375  2.2865  1.4964  0.4102
18524SOL     OW57012   4.125   6.827   6.007 -0.1372 -0.3752  0.0826
18524SOL    HW157013   4.204   6.880   5.998 -0.5601  0.0347 -1.6678
18524SOL    HW257014   4.156   6.742   6.036  0.8175  0.1184  0.5602
18525SOL     OW57015   2.799   2.980   1.514 -0.0969  0.7788 -0.0200
18525SOL    HW157016   2.792   2.885   1.518 -2.0162  0.9167  1.0720
18525SOL    HW257017   2.766   3.003   1.427  2.4685  0.3742 -1.1948
18526SOL     OW57018   2.521   4.600   1.146 -0.6495  0.0480  0.2247
18526SOL    HW157019   2.510   4.506   1.134 -0.9509  0.1863 -0.6547
18526SOL    HW257020   2.458   4.640   1.085  0.1565  0.8164 -0.1300
18527SOL     OW57021   7.539   0.947   1.075  0.0373  0.0267  0.1014
18527SOL    HW157022   7.546   0.899   0.993 -0.6599  0.3255 -0.1421
18527SOL    HW257023   7.626   0.986   1.087 -0.3196  1.3908 -1.3916
18528SOL     OW57024   6.268   6.930   4.658 -0.2639 -0.1979 -0.5574
18528SOL    HW157025   6.352   6.969   4.635  0.0034 -0.1565  0.4645
18528SOL    HW257026   6.203   6.987   4.617  0.1667  0.4994 -0.2858
18529SOL     OW57027   4.584   6.506   6.657 -0.3509 -0.4295  0.0320
18529SOL    HW157028   4.648   6.482   6.589 -0.3702  1.1318 -0.5951
18529SOL    HW257029   4.635   6.507   6.738  0.4032  0.5247 -0.4199
18530SOL     OW57030   5.089   1.789   9.329 -0.1997  0.0110  0.0732
18530SOL    HW157031   5.137   1.745   9.398 -1.1871  0.6064  1.1811
18530SOL    HW257032   5.155   1.813   9.264  0.4786 -2.2296 -0.1258
18531SOL     OW57033   5.419   0.570   6.102  0.4374  0.0529 -0.2378
18531SOL    HW157034   5.387   0.658   6.080 -0.3633 -0.3154 -0.5811
18531SOL    HW257035   5.375   0.549   6.184  0.1925 -0.2450 -0.4416
18532SOL     OW57036   2.146   0.723   0.836 -0.4099 -0.3206  0.2725
18532SOL    HW157037   2.223   0.670   0.816  0.3411  0.8817 -0.1131
18532SOL    HW257038   2.099   0.729   0.753 -0.0638  0.2757  0.1124
18533SOL     OW57039   4.044   4.503   9.781  0.1787 -0.6171  0.0566
18533SOL    HW157040   3.964   4.550   9.759 -0.3945 -1.7316 -0.2740
18533SOL    HW257041   4.020   4.445   9.853  0.5539 -1.3256 -0.3726
18534SOL     OW57042   2.326   1.030   8.478  0.4752 -0.0909  0.1656
18534SOL    HW157043   2.296   0.941   8.460  1.0029 -0.4689  1.0623
18534SOL    HW257044   2.408   1.018   8.526 -0.1123  0.8494  1.4646
18535SOL     OW57045   0.775   5.426   2.413  0.3964 -0.1934  0.4899
18535SOL    HW157046   0.715   5.464   2.476 -1.4341  0.0002 -1.2651
18535SOL    HW257047   0.731   5.348   2.381  1.6554 -0.7649  0.0576
18536SOL     OW57048   6.403   2.948   2.318 -0.0437  0.7251 -0.4020
18536SOL    HW157049   6.399   2.912   2.229  1.1521 -1.4497  0.3379
18536SOL    HW257050   6.487   2.995   2.320  0.9123 -0.9158  0.0884
18537SOL     OW57051   6.346   5.699  10.956 -0.6658  0.4092  0.1469
18537SOL    HW157052   6.304   5.705  10.870 -1.6202 -1.8354  0.3982
18537SOL    HW257053   6.284   5.649  11.009  0.8069  0.0229  1.5671
18538SOL     OW57054   0.140   1.389   7.375  0.0512 -0.1236 -0.3543
18538SOL    HW157055   0.052   1.376   7.412 -0.3388  0.6952 -0.9475
18538SOL    HW257056   0.200   1.367   7.446 -0.6481 -0.2565  0.2043
18539SOL     OW57057   1.019   0.146   0.358  0.3115 -0.4682 -0.5024
18539SOL    HW157058   1.079   0.143   0.283  0.6913 -1.7648 -0.1661
18539SOL    HW257059   0.984   0.057   0.364  0.5164 -0.4682  1.0354
18540SOL     OW57060   7.510   6.297   9.851  0.8962 -0.1012  0.4041
18540SOL    HW157061   7.461   6.258   9.778  0.3968 -0.1712  0.7666
18540SOL    HW257062   7.571   6.358   9.809 -1.0537  1.7251  0.0064
18541SOL     OW57063   3.597   5.992   8.804 -0.5645 -0.9083  0.0702
18541SOL    HW157064   3.573   5.979   8.712  1.5426  2.2381 -1.1202
18541SOL    HW257065   3.519   6.030   8.844 -0.4194  1.3258 -1.5352
18542SOL     OW57066   2.855   2.602   6.424  0.2282 -0.4814  0.1957
18542SOL    HW157067   2.895   2.651   6.496 -0.9869  1.3391 -0.3019
18542SOL    HW257068   2.884   2.648   6.345 -1.4835 -0.1194 -0.2536
18543SOL     OW57069   1.564   1.202   5.889 -0.0533 -0.1683  0.5311
18543SOL    HW157070   1.509   1.241   5.820  1.9658  2.0673  0.0438
18543SOL    HW257071   1.602   1.277   5.935  0.4760 -1.6275  2.6183
18544SOL     OW57072   7.127   4.733  10.798  0.0308 -0.3041 -0.1874
18544SOL    HW157073   7.197   4.719  10.733 -0.1403  0.2209 -0.4927
18544SOL    HW257074   7.049   4.752  10.745  0.8154  5.1864 -0.0070
18545SOL     OW57075   4.641   2.809   8.073  0.3277 -0.2783  0.1556
18545SOL    HW157076   4.640   2.881   8.136 -0.7281  0.6613 -0.8910
18545SOL    HW257077   4.730   2.810   8.038  0.2351  0.7309 -0.0808
18546SOL     OW57078   3.829   7.536  10.818 -0.3518 -0.0187  0.1030
18546SOL    HW157079   3.736   7.525  10.800 -1.2990  2.0619  3.0546
18546SOL    HW257080   3.852   7.618  10.773 -0.2407  0.0624  0.3074
18547SOL     OW57081   0.786   4.810   1.028  0.1245 -0.1154  0.2312
18547SOL    HW157082   0.791   4.890   0.976  1.4914 -0.6163 -0.4511
18547SOL    HW257083   0.798   4.839   1.119  3.0829  0.2613 -0.1899
18548SOL     OW57084   5.349   5.584   3.897 -0.2598  0.0473  0.0844
18548SOL    HW157085   5.384   5.499   3.924 -0.5386 -0.0555  0.1151
18548SOL    HW257086   5.310   5.569   3.811 -0.1662  0.1798  0.0183
18549SOL     OW57087   1.974   7.631   4.568  0.8065 -0.2995  0.4037
18549SOL    HW157088   1.990   7.720   4.599  0.1438 -0.5456  1.5015
18549SOL    HW257089   2.042   7.579   4.611  0.9867 -0.3817  0.0240
18550SOL     OW57090   2.570   3.153   0.542  0.3732 -0.2567 -0.0874
18550SOL    HW157091   2.593   3.196   0.624 -2.1991 -0.4766  0.8671
18550SOL    HW257092   2.504   3.088   0.567 -0.3430 -0.4639 -2.2793
18551SOL     OW57093   6.884   2.149   0.956 -0.6584  0.3308 -0.0275
18551SOL    HW157094   6.975   2.167   0.979 -0.2060 -2.6661  0.9815
18551SOL    HW257095   6.855   2.087   1.023 -2.1905 -1.8067 -2.4966
18552SOL     OW57096   5.854   0.756   0.666 -0.1983 -0.2924 -0.0113
18552SOL    HW157097   5.765   0.721   0.663 -0.1623 -0.4262  0.4127
18552SOL    HW257098   5.895   0.725   0.584 -0.8608  0.6544 -0.7138
18553SOL     OW57099   4.657   5.646   7.702 -0.1561  0.1208  0.5617
18553SOL    HW157100   4.578   5.663   7.650 -0.6476 -0.0022  1.2520
18553SOL    HW257101   4.691   5.733   7.723 -0.9895  0.2266  1.5644
18554SOL     OW57102   5.663   0.551   3.899  0.3593 -0.0290 -0.3582
18554SOL    HW157103   5.666   0.606   3.820  0.4004 -0.1700 -0.4567
18554SOL    HW257104   5.754   0.533   3.918  0.3376 -0.2569 -0.4648
18555SOL     OW57105   4.757   5.095   5.507  0.3874  0.1561  0.1139
18555SOL    HW157106   4.707   5.113   5.586  1.0215 -0.1660  0.5948
18555SOL    HW257107   4.694   5.053   5.448  0.1279 -0.4162  0.7800
18556SOL     OW57108   3.754   4.710  12.250 -0.0697 -0.2248  0.6278
18556SOL    HW157109   3.757   4.731  12.343  2.4769 -2.2954  1.1096
18556SOL    HW257110   3.843   4.682  12.228 -1.2854 -2.8253 -1.6500
18557SOL     OW57111   3.507   0.295   9.573 -0.3947 -0.1178  0.1126
18557SOL    HW157112   3.519   0.231   9.644  0.0686 -1.3620 -1.0386
18557SOL    HW257113   3.566   0.367   9.596  0.8387 -1.1490  0.2811
18558SOL     OW57114   3.575   1.302   9.308  0.1994 -0.1891 -0.3240
18558SOL    HW157115   3.663   1.264   9.311  0.7362  1.0357  0.8493
18558SOL    HW257116   3.532   1.269   9.386  0.5708  1.2871  0.5476
18559SOL     OW57117   6.095   3.046   9.260  0.1749 -0.9063 -0.3185
18559SOL    HW157118   6.093   3.019   9.168  1.5170  0.6520 -0.8480
18559SOL    HW257119   6.005   3.034   9.291 -0.7963  0.4301 -2.4190
18560SOL     OW57120   7.073   5.276   0.041  0.6389  0.4175  0.0026
18560SOL    HW157121   7.070   5.192  -0.006  0.3965  1.1803 -1.3861
18560SOL    HW257122   7.167   5.293   0.052  0.7407  0.7261 -1.1733
18561SOL     OW57123   7.551   4.940  11.204  0.0655 -0.7983 -0.0115
18561SOL    HW157124   7.614   4.996  11.158  1.7204 -0.4386  2.5217
18561SOL    HW257125   7.571   4.852  11.172  0.4305 -0.4539 -0.7739
18562SOL     OW57126   0.577   2.322   4.979 -0.2411  0.0895 -0.0715
18562SOL    HW157127   0.604   2.304   4.889  2.8199  0.4990  0.6326
18562SOL    HW257128   0.619   2.254   5.031 -1.2461  0.3520  1.1275
18563SOL     OW57129   2.407   1.255   0.483 -0.5268 -0.0225  0.7663
18563SOL    HW157130   2.485   1.260   0.539 -0.1891  0.5695  0.2571
18563SOL    HW257131   2.428   1.190   0.417 -0.7184 -0.3289  1.0020
18564SOL     OW57132   4.111   6.476  12.342  0.1114  0.2424 -0.2215
18564SOL    HW157133   4.109   6.500  12.435  0.0880  1.1340 -0.4487
18564SOL    HW257134   4.114   6.559  12.296  0.9803 -0.2129 -1.0093
18565SOL     OW57135   6.331   2.501   2.628  0.1474 -0.0216  0.5540
18565SOL    HW157136   6.254   2.558   2.634 -1.5385 -2.2483  1.4875
18565SOL    HW257137   6.377   2.514   2.710  0.3146  0.6730  0.3597
18566SOL     OW57138   1.910   6.100   6.578 -0.2233  0.0227 -0.1914
18566SOL    HW157139   1.868   6.155   6.512 -1.8604 -0.1700  0.6555
18566SOL    HW257140   1.913   6.155   6.657 -0.3562 -0.5307  0.2019
18567SOL     OW57141   2.169   2.486   9.456  0.0124  0.3693  0.0595
18567SOL    HW157142   2.088   2.459   9.412  0.0015 -0.9888  0.8411
18567SOL    HW257143   2.223   2.522   9.386 -1.0272  0.7501 -0.5771
18568SOL     OW57144   1.140   5.044   6.460 -0.3145 -0.5291  0.1065
18568SOL    HW157145   1.096   4.976   6.409  1.4913 -0.8008 -1.2143
18568SOL    HW257146   1.207   5.079   6.401  0.5245  0.5869  1.6286
18569SOL     OW57147   0.118   7.812   6.235  0.1785 -0.0924 -0.1719
18569SOL    HW157148   0.156   7.775   6.315 -1.2883 -0.4985  0.3776
18569SOL    HW257149   0.191   7.819   6.174  1.0641 -1.0806  0.7363
18570SOL     OW57150   5.234   2.926   3.132  0.1378 -0.2454 -0.4930
18570SOL    HW157151   5.255   2.916   3.224  0.1054  1.3779 -0.2821
18570SOL    HW257152   5.270   2.848   3.090 -1.3045 -1.8638  1.0964
18571SOL     OW57153   5.331   6.830   2.515  0.2851 -0.3121 -0.2370
18571SOL    HW157154   5.265   6.882   2.469  0.4938 -1.0825 -1.4674
18571SOL    HW257155   5.315   6.740   2.487  1.2752 -0.6344  0.1689
18572SOL     OW57156   5.592   2.188  10.401 -0.1949  0.6015  0.3578
18572SOL    HW157157   5.684   2.207  10.387 -0.1849  0.8642  0.7719
18572SOL    HW257158   5.547   2.232  10.329 -0.0166  0.6560  0.2792
18573SOL     OW57159   2.963   3.786   8.753 -0.0127  0.0957  0.4711
18573SOL    HW157160   3.030   3.848   8.782  0.4282 -0.7966  1.4556
18573SOL    HW257161   2.912   3.834   8.688  1.3548  0.9176 -0.0431
18574SOL     OW57162   1.624   2.571   9.459 -0.7802 -0.4393  0.3305
18574SOL    HW157163   1.601   2.485   9.494 -1.3477  0.3770  2.0585
18574SOL    HW257164   1.577   2.577   9.376 -2.4575 -0.9761  1.2045
18575SOL     OW57165   1.467   5.047   9.041  0.3358  0.0475 -0.6522
18575SOL    HW157166   1.517   4.987   8.984  2.1885 -0.4110  1.3242
18575SOL    HW257167   1.398   4.992   9.078 -1.2586  0.4822 -2.7535
18576SOL     OW57168   0.178   5.329   5.050 -0.1471 -0.0067 -0.7852
18576SOL    HW157169   0.131   5.336   5.133  0.4503  1.3614 -0.5288
18576SOL    HW257170   0.150   5.406   5.000  1.4575  0.6311 -0.7864
18577SOL     OW57171   2.357   6.065   2.466  0.0370  0.0720 -0.3063
18577SOL    HW157172   2.370   6.136   2.529  0.7500  1.4885 -1.9488
18577SOL    HW257173   2.420   6.083   2.396 -0.2531 -1.8065 -1.1239
18578SOL     OW57174   0.719   0.904  12.257 -0.6360  0.0491  0.9651
18578SOL    HW157175   0.783   0.923  12.189 -1.8619 -0.2541 -0.3166
18578SOL    HW257176   0.670   0.985  12.268 -1.3130 -0.2865  0.5058
18579SOL     OW57177   4.257   5.013   6.326  0.0763  0.2174  0.0169
18579SOL    HW157178   4.172   5.049   6.351  0.0410  0.0431  0.1501
18579SOL    HW257179   4.313   5.029   6.401  0.5274  1.5227 -0.5689
18580SOL     OW57180   1.587   4.269  10.218 -0.1281  0.0352  0.0663
18580SOL    HW157181   1.674   4.264  10.257 -0.1802 -0.2256  0.1497
18580SOL    HW257182   1.587   4.352  10.170 -0.9215  1.7552  2.7773
18581SOL     OW57183   4.144   0.022   9.917 -0.0433  0.1061  0.3100
18581SOL    HW157184   4.097  -0.061   9.910 -0.0690  0.1401  0.0895
18581SOL    HW257185   4.232  -0.003   9.943 -0.3634  0.0825  1.4239
18582SOL     OW57186   3.170   3.031   3.504 -0.4040 -0.5759 -0.2297
18582SOL    HW157187   3.080   3.059   3.522  0.5810  2.3349  0.6605
18582SOL    HW257188   3.173   3.019   3.409 -1.1995  1.5847 -0.5763
18583SOL     OW57189   2.652   7.658   4.306  0.0168  0.1059 -0.4833
18583SOL    HW157190   2.601   7.734   4.278  2.0235  1.1239 -1.5938
18583SOL    HW257191   2.663   7.606   4.226  0.4504 -0.2536 -0.1900
18584SOL     OW57192   2.192   7.160   4.116  0.0423  0.0002  0.0483
18584SOL    HW157193   2.117   7.216   4.136 -0.5585 -0.5234 -0.6635
18584SOL    HW257194   2.265   7.221   4.103 -0.1345  0.4911  1.2280
18585SOL     OW57195   5.847   2.040   9.965 -0.3541  0.0400  0.3197
18585SOL    HW157196   5.873   2.051   9.874  2.0627  0.8665  1.0321
18585SOL    HW257197   5.840   2.130   9.999  0.7639 -0.2641  1.4205
18586SOL     OW57198   5.220   2.032  11.663 -0.3463  0.6731 -0.0018
18586SOL    HW157199   5.214   1.950  11.711 -2.6221  0.6427 -0.2248
18586SOL    HW257200   5.308   2.032  11.625 -0.1278 -1.4215  0.4087
18587SOL     OW57201   5.915   2.165   6.577  0.3853 -0.3617  0.8403
18587SOL    HW157202   5.936   2.157   6.670  0.2687  0.4605  0.9429
18587SOL    HW257203   5.820   2.178   6.575  0.2340 -1.3868  0.5343
18588SOL     OW57204   2.520   2.533   5.518  0.0595 -0.7370 -0.2989
18588SOL    HW157205   2.601   2.564   5.558  0.5808 -0.6639 -1.3711
18588SOL    HW257206   2.535   2.543   5.424 -0.9560 -1.3148 -0.5324
18589SOL     OW57207   0.076   5.021   3.044 -0.1721 -0.2643 -0.3860
18589SOL    HW157208   0.171   5.022   3.045 -0.1425  0.9696 -1.1937
18589SOL    HW257209   0.053   4.937   3.005  0.6320 -0.1030 -1.2465
18590SOL     OW57210   1.367   2.275  11.441  0.2063 -0.1835  0.1133
18590SOL    HW157211   1.368   2.371  11.448 -1.8436 -0.1962  2.2918
18590SOL    HW257212   1.381   2.245  11.531  0.4099 -1.9315 -0.4738
18591SOL     OW57213   7.784   1.431  10.128 -0.2415  0.0286 -0.0930
18591SOL    HW157214   7.837   1.368  10.078 -0.3189  0.7928 -1.1831
18591SOL    HW257215   7.734   1.377  10.188 -0.9467 -1.0679 -1.5892
18592SOL     OW57216   5.510   3.495   4.721  0.2503  0.2087  0.3016
18592SOL    HW157217   5.566   3.568   4.746  0.7602  0.2768 -0.9623
18592SOL    HW257218   5.424   3.534   4.709  0.3240  0.4344  0.4937
18593SOL     OW57219   6.942   0.069   5.428 -0.8176  0.2282  0.8638
18593SOL    HW157220   6.887  -0.010   5.426 -3.4638  1.9451  1.0168
18593SOL    HW257221   6.936   0.104   5.339  0.3106  0.2887  0.8051
18594SOL     OW57222   6.550   5.591   3.245  0.2264  0.1788  1.0108
18594SOL    HW157223   6.484   5.597   3.176  1.2143 -0.0644  0.0171
18594SOL    HW257224   6.523   5.655   3.310 -1.4890 -0.5599  1.0589
18595SOL     OW57225   4.177   5.333   0.277  0.1819  0.5962  0.3943
18595SOL    HW157226   4.233   5.409   0.263  0.0120  0.6870  0.1805
18595SOL    HW257227   4.230   5.258   0.249  0.0396  0.7252 -0.2550
18596SOL     OW57228   0.252   1.141   4.984 -0.3426 -0.0420 -0.1266
18596SOL    HW157229   0.298   1.104   4.909 -0.2027 -1.3536  0.5639
18596SOL    HW257230   0.315   1.201   5.024  0.6138 -1.3679  0.4654
18597SOL     OW57231   0.267   5.291   3.494  0.3584  0.2315 -0.1413
18597SOL    HW157232   0.270   5.210   3.444  2.3850  0.2804 -0.2034
18597SOL    HW257233   0.194   5.280   3.555 -0.1887 -1.1063 -1.0084
18598SOL     OW57234   1.420   1.804   0.452  0.2105 -0.3655 -0.1771
18598SOL    HW157235   1.399   1.834   0.541 -0.8647 -0.3969 -0.4090
18598SOL    HW257236   1.487   1.737   0.465 -1.1583 -1.6254  0.7723
18599SOL     OW57237   1.937   3.073   0.714 -0.2717 -0.4067 -0.1643
18599SOL    HW157238   1.871   3.142   0.723  0.4973  0.3076  0.0353
18599SOL    HW257239   2.019   3.120   0.698  0.2224 -1.2848 -0.2485
18600SOL     OW57240   7.804   1.508  11.542  0.5737 -0.0463  0.2548
18600SOL    HW157241   7.809   1.416  11.568  0.3480  0.3414  1.7625
18600SOL    HW257242   7.711   1.526  11.530  0.7138 -0.3897 -1.5625
18601SOL     OW57243   4.600   2.176   0.559  0.6110 -0.1675  0.3371
18601SOL    HW157244   4.522   2.209   0.514  1.1025  0.6786  0.0880
18601SOL    HW257245   4.614   2.089   0.522 -1.4029 -1.2354  1.8684
18602SOL     OW57246   2.081   4.800   5.460  0.2395  0.0714  0.0121
18602SOL    HW157247   2.117   4.735   5.521  1.9276  0.7846 -0.1950
18602SOL    HW257248   2.126   4.881   5.481 -0.2086  0.6686 -1.2413
18603SOL     OW57249   0.564   1.352   2.841 -0.8910  0.1340  0.3901
18603SOL    HW157250   0.496   1.338   2.775  0.3305  0.5131 -1.0015
18603SOL    HW257251   0.517   1.389   2.916 -2.1604  0.6864 -0.6351
18604SOL     OW57252   7.106   3.855   5.002  0.4230 -0.0855 -0.3695
18604SOL    HW157253   7.013   3.835   4.993  0.7784 -2.1068  0.0433
18604SOL    HW257254   7.151   3.785   4.954  1.7381  1.8675 -2.1787
18605SOL     OW57255   7.345   0.615   0.586  0.3619 -0.6065 -0.0383
18605SOL    HW157256   7.306   0.648   0.666  0.4546 -2.0752  0.6288
18605SOL    HW257257   7.395   0.538   0.613  1.1686 -0.5833 -1.3578
18606SOL     OW57258   6.288   6.132   6.848 -0.2692 -0.5004 -0.1114
18606SOL    HW157259   6.290   6.111   6.755 -0.9665 -1.6786  0.1116
18606SOL    HW257260   6.317   6.052   6.892 -1.3348 -0.4549  0.7317
18607SOL     OW57261   1.692   7.259   1.317 -0.0094 -0.1476 -0.4390
18607SOL    HW157262   1.736   7.342   1.337 -1.4103  1.0630 -2.0314
18607SOL    HW257263   1.749   7.216   1.254 -0.8822  1.3139 -2.3328
18608SOL     OW57264   1.817   2.549   1.764  0.1410  0.1342 -0.0279
18608SOL    HW157265   1.912   2.552   1.764  0.1207  1.5053  0.4935
18608SOL    HW257266   1.794   2.516   1.852  0.1260 -2.6317 -0.9690
18609SOL     OW57267   0.591   6.544   6.664  0.3302  0.1043  0.2633
18609SOL    HW157268   0.678   6.516   6.692  0.9584  0.9946 -0.7218
18609SOL    HW257269   0.539   6.464   6.665  2.3409 -1.5611 -3.5843
18610SOL     OW57270   6.747   0.584   9.894 -0.0532  0.2583 -0.7676
18610SOL    HW157271   6.746   0.517   9.825  0.6785 -2.4787  1.6965
18610SOL    HW257272   6.840   0.598   9.912 -0.2358  0.6878 -0.1356
18611SOL     OW57273   2.268   2.034   4.759  0.0893  0.3129 -0.4979
18611SOL    HW157274   2.282   2.060   4.668 -1.1728  1.0025 -0.5146
18611SOL    HW257275   2.310   2.102   4.811 -1.1521  1.1484 -0.5611
18612SOL     OW57276   0.310   3.021   6.592 -0.1735  0.2596  0.1050
18612SOL    HW157277   0.369   2.955   6.557 -2.3907 -1.3096 -0.9298
18612SOL    HW257278   0.357   3.058   6.667  1.2059 -2.4712  0.7239
18613SOL     OW57279   0.667   6.924   8.644  0.0352 -0.2716  0.0644
18613SOL    HW157280   0.598   6.947   8.707 -0.3410 -1.7445  0.2177
18613SOL    HW257281   0.628   6.938   8.558  0.0781  0.3943  0.1500
18614SOL     OW57282   4.869   0.910   4.436  0.6318  0.0700 -0.4944
18614SOL    HW157283   4.795   0.878   4.487 -1.0055 -0.0471 -2.7889
18614SOL    HW257284   4.945   0.895   4.492 -0.8550 -1.4709  1.2438
18615SOL     OW57285   0.175   5.309   2.145 -0.2428  0.0130  0.1224
18615SOL    HW157286   0.132   5.386   2.182 -1.4146 -0.9567  0.8210
18615SOL    HW257287   0.261   5.307   2.187 -0.7441  0.1424  1.1682
18616SOL     OW57288   2.904   2.117   1.521  0.2129 -0.2904  0.0943
18616SOL    HW157289   2.999   2.119   1.511  0.2085  0.7737  0.1861
18616SOL    HW257290   2.890   2.077   1.607  0.6360  0.6775  0.6375
18617SOL     OW57291   2.328   6.546   0.287 -0.3991  0.6383  0.5457
18617SOL    HW157292   2.273   6.622   0.303 -1.1391  0.2262  0.0238
18617SOL    HW257293   2.417   6.576   0.307 -0.6057  1.8001 -0.2156
18618SOL     OW57294   5.766   4.834  10.544 -0.0974  0.3038  0.1902
18618SOL    HW157295   5.856   4.864  10.556  0.5577 -1.3119 -0.5065
18618SOL    HW257296   5.763   4.747  10.584 -1.7087  0.8352  1.3536
18619SOL     OW57297   6.605   0.903   2.414  0.3898 -0.1863 -0.9160
18619SOL    HW157298   6.529   0.864   2.371 -0.4603  1.3708 -0.8742
18619SOL    HW257299   6.609   0.859   2.499 -0.6727 -0.0514 -0.7822
18620SOL     OW57300   0.609   4.492   3.632  0.6055  0.0071 -0.1244
18620SOL    HW157301   0.599   4.550   3.708  0.9656  1.1179 -0.8842
18620SOL    HW257302   0.703   4.473   3.629  0.6751  0.4000 -0.5809
18621SOL     OW57303   7.170   0.287   3.684 -0.3272  0.4063 -0.3182
18621SOL    HW157304   7.185   0.195   3.663 -1.1719  0.0292  0.6120
18621SOL    HW257305   7.198   0.295   3.776  0.0109  1.1498 -0.4776
18622SOL     OW57306   3.207   0.561   4.564  0.1918  0.2640  0.9946
18622SOL    HW157307   3.280   0.584   4.507  0.3868  0.0714  1.1673
18622SOL    HW257308   3.139   0.624   4.542 -0.8733 -1.6574 -1.6555
18623SOL     OW57309   1.410   6.284   3.592 -0.7190 -0.1610  0.2953
18623SOL    HW157310   1.456   6.355   3.548 -1.5399  0.1410 -0.0902
18623SOL    HW257311   1.465   6.263   3.668 -0.6877  1.1901  0.6670
18624SOL     OW57312   7.438   4.096   8.424  0.4912  0.2330  0.3555
18624SOL    HW157313   7.460   4.186   8.400 -0.6495  0.1396 -1.1840
18624SOL    HW257314   7.349   4.102   8.459  0.4806 -0.2671  0.4173
18625SOL     OW57315   0.396   1.265   6.842 -0.2056  0.7206 -0.4983
18625SOL    HW157316   0.312   1.231   6.874  0.4583 -1.0877 -0.5519
18625SOL    HW257317   0.430   1.315   6.916 -1.1999  1.2664 -0.3864
18626SOL     OW57318   1.561   3.353   8.213  0.0066  0.6314 -0.1233
18626SOL    HW157319   1.528   3.263   8.211 -0.7162  0.8812 -0.0151
18626SOL    HW257320   1.483   3.406   8.233  0.4665  1.2572  0.0327
18627SOL     OW57321   7.404   3.819   6.143 -0.6325  0.5086  0.0801
18627SOL    HW157322   7.461   3.761   6.092  0.4742  1.9543 -0.3795
18627SOL    HW257323   7.315   3.792   6.119 -0.1564 -0.7277 -0.4029
18628SOL     OW57324   6.723   5.945   9.870 -0.0155 -0.4201  0.2563
18628SOL    HW157325   6.698   5.892   9.945 -1.5286 -0.5444 -0.2949
18628SOL    HW257326   6.760   6.025   9.907  0.5703 -1.0798  1.1081
18629SOL     OW57327   5.932   7.086   6.354 -0.3144 -0.1805 -0.5463
18629SOL    HW157328   5.864   7.067   6.290 -1.0933  0.4939  0.0623
18629SOL    HW257329   5.970   7.169   6.324 -0.2281 -0.2003 -0.4942
18630SOL     OW57330   7.700   2.645   0.668 -0.2198  0.0615 -0.0632
18630SOL    HW157331   7.630   2.659   0.732  0.5162 -1.3446  1.1151
18630SOL    HW257332   7.662   2.673   0.585 -1.8168  0.2889  0.6905
18631SOL     OW57333   3.573   1.241   4.401 -0.1919  0.1016 -0.0522
18631SOL    HW157334   3.619   1.299   4.341  2.2168 -1.8052 -0.2512
18631SOL    HW257335   3.534   1.174   4.345 -2.1463  0.9452  0.2295
18632SOL     OW57336   6.610   6.500   8.435  0.1662 -0.1808 -0.2993
18632SOL    HW157337   6.578   6.442   8.505  0.0325  0.2300 -0.0146
18632SOL    HW257338   6.532   6.525   8.387  0.4147 -1.7236 -1.6039
18633SOL     OW57339   7.040   1.228   4.637 -0.2233  0.2478  0.2768
18633SOL    HW157340   7.124   1.181   4.637 -0.5555 -0.5979 -3.2644
18633SOL    HW257341   6.977   1.163   4.668 -0.2061 -0.7545 -1.6218
18634SOL     OW57342   5.453   1.550   1.416 -0.0387 -0.8817  0.0752
18634SOL    HW157343   5.365   1.532   1.383 -2.4812  2.4949  3.8198
18634SOL    HW257344   5.480   1.630   1.371  0.2121 -0.7863  0.3881
18635SOL     OW57345   4.906   2.624   2.555  0.3303 -0.2218 -0.8159
18635SOL    HW157346   4.945   2.583   2.632 -0.9467  1.2006  0.6658
18635SOL    HW257347   4.831   2.569   2.534 -0.5381  0.5041  0.2788
18636SOL     OW57348   3.908   4.184   2.746 -0.4387 -0.3539  0.0175
18636SOL    HW157349   3.993   4.164   2.786 -0.4541 -0.9416 -0.2271
18636SOL    HW257350   3.892   4.276   2.768 -0.5004 -0.6769  1.4895
18637SOL     OW57351   6.430   7.381  11.636 -0.2468 -0.2045  0.1899
18637SOL    HW157352   6.514   7.347  11.608 -0.6038 -0.8738 -0.0867
18637SOL    HW257353   6.379   7.390  11.556 -0.1450  1.0846  0.2355
18638SOL     OW57354   2.001   0.203  10.764 -0.4263 -0.6504  0.1060
18638SOL    HW157355   2.022   0.295  10.774  2.1593 -1.3149  1.5895
18638SOL    HW257356   2.054   0.174  10.689  0.2591 -1.3247  0.8391
18639SOL     OW57357   3.891   7.114   7.355 -0.2664 -0.4585  0.2947
18639SOL    HW157358   3.865   7.030   7.393  0.2162 -0.2529  1.1266
18639SOL    HW257359   3.949   7.090   7.282 -0.6024 -0.8556  0.1539
18640SOL     OW57360   0.246   3.770  10.562 -0.0497  0.2313 -0.7162
18640SOL    HW157361   0.207   3.748  10.477 -0.5310  1.9103 -0.9548
18640SOL    HW257362   0.284   3.857  10.549  0.0272  0.4314  0.7534
18641SOL     OW57363   1.752   1.322   8.483 -0.9962  0.2277  0.1353
18641SOL    HW157364   1.760   1.295   8.574  0.7741 -1.8360 -0.5414
18641SOL    HW257365   1.841   1.348   8.458 -1.0817 -0.8503 -1.4270
18642SOL     OW57366   3.005   6.321   8.942  0.2451 -0.1620 -0.8016
18642SOL    HW157367   2.968   6.397   8.896 -0.6015 -0.0731 -0.0018
18642SOL    HW257368   3.048   6.270   8.873  1.1493  1.2150 -1.3101
18643SOL     OW57369   7.150   4.690   8.515 -0.4406 -0.0986  0.6289
18643SOL    HW157370   7.166   4.765   8.458 -2.1647  0.1193  0.4002
18643SOL    HW257371   7.119   4.621   8.457  0.4535 -0.7854  0.9400
18644SOL     OW57372   3.496   0.894   5.710  0.1307 -0.1387  0.8853
18644SOL    HW157373   3.561   0.827   5.689 -0.4816 -0.2669 -0.6872
18644SOL    HW257374   3.541   0.951   5.773  2.5801  0.9670 -1.6774
18645SOL     OW57375   7.523   6.387   1.832 -0.2935  0.0927  0.1424
18645SOL    HW157376   7.540   6.293   1.837  0.5392  0.2003 -0.3926
18645SOL    HW257377   7.465   6.397   1.756 -0.6197 -0.0244  0.3802
18646SOL     OW57378   6.926   0.729   5.729  0.1339 -0.0249 -0.2113
18646SOL    HW157379   6.944   0.823   5.736  1.0339 -0.2986  1.6739
18646SOL    HW257380   7.011   0.689   5.715  0.4154 -0.8580  3.1953
18647SOL     OW57381   5.406   3.992   8.083  0.6580  0.1029  0.0195
18647SOL    HW157382   5.472   4.013   8.149  1.4379 -1.2656 -0.2851
18647SOL    HW257383   5.428   4.048   8.008  1.7598 -0.6260 -0.2296
18648SOL     OW57384   6.970   5.726   5.072 -0.2051  0.2910  0.2920
18648SOL    HW157385   7.000   5.783   5.001  0.5212  0.2197  0.5293
18648SOL    HW257386   6.898   5.773   5.112 -0.6543  0.3136 -0.5168
18649SOL     OW57387   0.873   6.641   9.056 -0.1782  0.2253 -0.2982
18649SOL    HW157388   0.893   6.672   9.144 -0.5037 -1.6427  0.4817
18649SOL    HW257389   0.779   6.654   9.046 -0.6546 -2.0060  0.7233
18650SOL     OW57390   7.395   2.131   2.901 -0.3278  0.2760 -0.5347
18650SOL    HW157391   7.344   2.111   2.980 -1.4700 -1.5948 -1.6878
18650SOL    HW257392   7.420   2.223   2.912 -1.3773  0.3714  1.4953
18651SOL     OW57393   6.708   1.835   3.189  0.0297 -0.1142 -1.0078
18651SOL    HW157394   6.686   1.754   3.235  2.3630 -1.0468 -1.3961
18651SOL    HW257395   6.683   1.818   3.098  0.7956 -0.5591 -1.1478
18652SOL     OW57396   7.036   7.693   3.407 -0.1746 -0.4113  0.5935
18652SOL    HW157397   7.077   7.774   3.438 -0.8019 -0.5021  1.7089
18652SOL    HW257398   6.994   7.717   3.325  0.7787  0.0616  0.2267
18653SOL     OW57399   5.209   0.610   0.262 -0.0283 -0.0946  0.6124
18653SOL    HW157400   5.154   0.688   0.265 -0.4942 -0.1199 -2.9052
18653SOL    HW257401   5.283   0.630   0.319  1.1438  4.0974 -1.9698
18654SOL     OW57402   2.809   1.807   3.443 -0.6452 -0.5986  0.1308
18654SOL    HW157403   2.787   1.757   3.522  0.5009 -1.5038 -0.0959
18654SOL    HW257404   2.783   1.750   3.371 -2.2257  0.4593 -0.2049
18655SOL     OW57405   5.431   7.736   6.904  0.2418 -0.5620 -0.6034
18655SOL    HW157406   5.446   7.828   6.884 -0.1524 -0.3610 -0.0102
18655SOL    HW257407   5.410   7.735   6.997  0.5303 -1.2880 -0.5383
18656SOL     OW57408   7.809   3.570   1.657  0.3411 -0.3746 -0.4206
18656SOL    HW157409   7.814   3.665   1.663  0.6517 -0.4114 -0.1214
18656SOL    HW257410   7.870   3.538   1.723  0.5852 -0.7827 -0.8402
18657SOL     OW57411   7.921   0.947   4.423  0.0432 -0.0479  0.2705
18657SOL    HW157412   7.999   0.894   4.438  1.1226  1.0206 -1.3455
18657SOL    HW257413   7.849   0.893   4.456  1.3805 -1.3479  1.1547
18658SOL     OW57414   2.183   0.085   4.247  0.0906  0.2134  0.0531
18658SOL    HW157415   2.233   0.103   4.168  0.7834  0.1782  0.4767
18658SOL    HW257416   2.145   0.169   4.272 -0.0822  0.2359 -0.2816
18659SOL     OW57417   7.033   5.947  12.258  0.0893 -0.2837  0.1006
18659SOL    HW157418   7.075   6.018  12.307  0.1493  0.2383 -0.6910
18659SOL    HW257419   7.101   5.916  12.198 -0.0627 -0.7421  0.1580
18660SOL     OW57420   3.011   6.460  11.806  0.0720  0.6812  0.9878
18660SOL    HW157421   3.061   6.385  11.772  0.6313  1.7256 -0.6157
18660SOL    HW257422   3.072   6.504  11.866  0.5157  1.0072  0.3185
18661SOL     OW57423   4.312   1.070   2.603 -0.3166  0.7961 -0.6338
18661SOL    HW157424   4.274   1.054   2.517  0.9718 -0.3602 -1.0128
18661SOL    HW257425   4.405   1.085   2.587  0.4701 -1.8977  0.6879
18662SOL     OW57426   0.321   0.533   0.142  0.2517 -0.4546  0.4863
18662SOL    HW157427   0.236   0.546   0.101 -0.0215 -2.0846  0.4350
18662SOL    HW257428   0.361   0.461   0.093  1.1017 -0.5843  1.3277
18663SOL     OW57429   2.553   7.044   6.835  0.5135 -0.0299  0.9392
18663SOL    HW157430   2.570   7.117   6.895  1.3669 -0.7777  1.6166
18663SOL    HW257431   2.578   7.078   6.749 -1.9414  1.5093  0.7271
18664SOL     OW57432   2.282   2.967  10.889  0.4127 -0.6496 -0.1924
18664SOL    HW157433   2.319   3.016  10.815  0.0935 -0.0980  0.0037
18664SOL    HW257434   2.270   3.033  10.958 -1.1672 -0.7536 -0.3373
18665SOL     OW57435   7.102   1.940  10.221 -0.1292  0.1440 -0.6989
18665SOL    HW157436   7.118   1.863  10.275  2.4530  0.1008 -1.3989
18665SOL    HW257437   7.165   2.005  10.252 -2.6109  2.2881  0.2781
18666SOL     OW57438   7.820   4.554   0.773  1.0073 -0.1360  0.4083
18666SOL    HW157439   7.742   4.568   0.827  0.9417  1.7123 -0.0944
18666SOL    HW257440   7.799   4.477   0.721 -0.6464  0.5195  0.0348
18667SOL     OW57441   1.619   0.687   1.993  0.2635 -0.1622  0.5784
18667SOL    HW157442   1.623   0.602   1.950 -0.8158  0.2132 -0.2902
18667SOL    HW257443   1.526   0.706   2.003  0.4723 -0.0207  2.6987
18668SOL     OW57444   4.206   7.773   8.059  0.3150  0.3799  0.8047
18668SOL    HW157445   4.143   7.841   8.082  0.3000  1.4591 -2.0376
18668SOL    HW257446   4.155   7.710   8.008  1.3902  1.1056 -1.2556
18669SOL     OW57447   2.227   3.528   6.602 -0.1666  0.3188 -0.1850
18669SOL    HW157448   2.180   3.509   6.683  0.2920 -0.1370 -0.0152
18669SOL    HW257449   2.172   3.493   6.533  0.2423 -0.8637  0.0628
18670SOL     OW57450   6.721   2.141   1.548  0.2268 -0.3581  0.0851
18670SOL    HW157451   6.726   2.217   1.490  1.2464 -0.1183  0.4682
18670SOL    HW257452   6.644   2.159   1.603  1.5833  1.4209  1.5307
18671SOL     OW57453   5.575   6.313   5.960 -0.4179  0.2637  0.3361
18671SOL    HW157454   5.603   6.229   5.922 -0.6083  0.4528 -0.2381
18671SOL    HW257455   5.490   6.330   5.919  0.3631  1.5425 -0.8442
18672SOL     OW57456   3.899   0.454   7.419  0.1692 -0.0505  0.0479
18672SOL    HW157457   3.879   0.501   7.499 -0.1230  0.8549 -0.5390
18672SOL    HW257458   3.819   0.407   7.397  0.3216 -0.4792  0.4013
18673SOL     OW57459   5.358   2.912   7.852  0.0954 -0.4190  0.1861
18673SOL    HW157460   5.264   2.900   7.842  0.0523 -1.5326  1.6630
18673SOL    HW257461   5.394   2.882   7.768 -0.9497  2.4559 -1.4463
18674SOL     OW57462   5.914   2.783   0.971 -0.1546 -0.5711 -0.7480
18674SOL    HW157463   5.854   2.807   1.042  0.6584  0.4212 -0.3631
18674SOL    HW257464   5.898   2.848   0.903  0.3898 -0.3735 -0.6914
18675SOL     OW57465   7.217   0.249   0.919  0.4078  0.6795 -0.4678
18675SOL    HW157466   7.175   0.164   0.932 -0.1024  1.2638  2.0499
18675SOL    HW257467   7.154   0.313   0.950  0.5686  2.1013 -2.8195
18676SOL     OW57468   4.590   2.957  10.099  0.1870  0.2557 -0.5605
18676SOL    HW157469   4.583   2.873  10.145 -1.6837  0.8956  0.4132
18676SOL    HW257470   4.656   3.006  10.147  1.4214 -0.6804 -1.2377
18677SOL     OW57471   1.521   1.793  10.216  0.3317  0.3205 -0.6204
18677SOL    HW157472   1.564   1.713  10.186  0.2738  0.5266 -1.2685
18677SOL    HW257473   1.588   1.861  10.208 -0.0665  0.6189 -1.5163
18678SOL     OW57474   6.271   5.738   7.721 -0.4861 -0.7733  0.2885
18678SOL    HW157475   6.212   5.813   7.728  2.0826  1.5865 -1.0457
18678SOL    HW257476   6.239   5.688   7.647 -2.2923 -1.0871  1.2376
18679SOL     OW57477   4.985   3.934   6.910 -0.2060  0.0180  0.2116
18679SOL    HW157478   4.965   3.858   6.965 -0.1702 -1.6090 -1.8946
18679SOL    HW257479   5.076   3.955   6.931 -0.3251 -0.2957  1.0878
18680SOL     OW57480   4.117   7.463  11.269 -0.0004  0.0808 -0.3787
18680SOL    HW157481   4.070   7.531  11.317 -0.3677 -2.0025  2.4575
18680SOL    HW257482   4.203   7.501  11.252 -0.6765  1.7758 -0.2548
18681SOL     OW57483   5.183   5.534   5.890  0.7028 -0.0832  0.2182
18681SOL    HW157484   5.226   5.619   5.883 -1.6341  1.2015  0.4477
18681SOL    HW257485   5.204   5.489   5.809  1.0024  1.2008 -0.4390
18682SOL     OW57486   7.856   3.247   0.189 -0.1912 -0.0850 -0.0032
18682SOL    HW157487   7.811   3.172   0.150 -0.8331  0.5329 -0.4594
18682SOL    HW257488   7.939   3.211   0.220  1.1207 -0.3106 -3.3688
18683SOL     OW57489   1.258   2.959   2.507  0.2483  0.0981  0.4429
18683SOL    HW157490   1.337   2.919   2.544  1.2188  1.7622  0.2689
18683SOL    HW257491   1.287   3.000   2.426 -1.4563 -1.8128 -1.2440
18684SOL     OW57492   1.642   6.598   1.372  0.4974 -0.1441  0.1688
18684SOL    HW157493   1.727   6.568   1.340 -0.2314  0.3751 -2.4817
18684SOL    HW257494   1.592   6.517   1.385  0.3111 -0.3552 -1.6358
18685SOL     OW57495   3.905   4.710   1.391 -0.2890  0.6752 -0.6757
18685SOL    HW157496   3.998   4.708   1.366  0.0810  0.6095  0.6012
18685SOL    HW257497   3.898   4.641   1.458 -1.6333 -0.4665 -1.9501
18686SOL     OW57498   3.362   2.835   7.720  0.8311 -0.2442  0.1233
18686SOL    HW157499   3.352   2.926   7.748 -0.4942 -0.4591  0.4685
18686SOL    HW257500   3.318   2.832   7.635 -2.1024 -1.1691  1.5115
18687SOL     OW57501   2.837   5.221  11.392 -0.0827  0.1768 -0.2541
18687SOL    HW157502   2.873   5.191  11.309 -0.8411 -0.1103 -0.4872
18687SOL    HW257503   2.819   5.141  11.441 -0.4855  0.3093 -0.1782
18688SOL     OW57504   5.010   2.439   2.715 -0.3396  0.1021 -0.1394
18688SOL    HW157505   4.980   2.373   2.652  1.2716  1.2789 -2.2737
18688SOL    HW257506   5.094   2.404   2.747  0.5469  1.0694 -1.3195
18689SOL     OW57507   6.518   5.562   4.295 -0.5693  0.4880  0.4698
18689SOL    HW157508   6.520   5.493   4.230 -1.8015  1.6448 -0.8686
18689SOL    HW257509   6.610   5.577   4.318 -0.1982 -0.6578 -0.2136
18690SOL     OW57510   6.983   2.962   1.297 -0.0978 -0.4327 -0.5380
18690SOL    HW157511   6.914   2.990   1.357  2.2738  1.8032  1.3716
18690SOL    HW257512   6.949   2.984   1.210 -2.7167 -1.7069  0.0465
18691SOL     OW57513   0.623   1.555   7.805  0.0577  0.2694 -0.5816
18691SOL    HW157514   0.650   1.641   7.773 -1.6207  0.9828 -0.2178
18691SOL    HW257515   0.531   1.548   7.779  0.1540 -1.4165 -0.5830
18692SOL     OW57516   1.593   1.993   3.190 -0.5901  0.0413 -0.2929
18692SOL    HW157517   1.683   1.979   3.220 -1.1447  1.6485  2.5126
18692SOL    HW257518   1.539   1.944   3.253 -1.7537  1.5811 -0.0249
18693SOL     OW57519   1.456   4.260   5.766 -0.0628 -0.2785 -0.6028
18693SOL    HW157520   1.363   4.248   5.747  0.2736 -1.2245 -1.8307
18693SOL    HW257521   1.479   4.184   5.820  0.6991 -1.9837 -3.1556
18694SOL     OW57522   5.770   3.577  10.796 -0.0764  0.6047 -0.0016
18694SOL    HW157523   5.841   3.617  10.847 -0.9915  0.9023  1.0849
18694SOL    HW257524   5.714   3.651  10.771 -0.3193  0.3102 -0.3369
18695SOL     OW57525   6.362   6.767   6.407 -0.6703 -0.6591 -0.3108
18695SOL    HW157526   6.390   6.737   6.493  0.0118  1.3790  0.2431
18695SOL    HW257527   6.280   6.814   6.425 -0.8108 -0.6966 -0.8571
18696SOL     OW57528   1.947   4.455   8.901  0.0007  0.6659  0.2667
18696SOL    HW157529   1.880   4.498   8.954 -0.4608 -0.6230  0.7436
18696SOL    HW257530   2.018   4.438   8.962  0.0411  0.4300  0.1529
18697SOL     OW57531   6.132   1.797   5.936  0.0038 -0.3158  0.3902
18697SOL    HW157532   6.083   1.855   5.994 -0.2890 -0.5595  0.3939
18697SOL    HW257533   6.162   1.726   5.992  1.0497  0.2337  0.5438
18698SOL     OW57534   0.955   1.332   8.060 -0.2071 -0.1515 -0.3627
18698SOL    HW157535   0.979   1.299   8.147 -0.1294 -2.9199 -1.3560
18698SOL    HW257536   1.035   1.324   8.008 -0.4751  0.6895 -0.9192
18699SOL     OW57537   1.731   7.627   4.706  0.0280 -0.4512  0.3712
18699SOL    HW157538   1.818   7.632   4.668 -0.5271  0.8879 -0.8053
18699SOL    HW257539   1.746   7.607   4.799  1.6208  0.7554  0.4107
18700SOL     OW57540   0.302   4.957  10.653 -0.1087  0.7150  0.0986
18700SOL    HW157541   0.248   4.882  10.626  1.3733  0.0242 -1.0891
18700SOL    HW257542   0.347   4.926  10.732 -1.6182  1.4115  1.2923
18701SOL     OW57543   4.828   5.429   2.239 -0.1411 -0.0801  0.2160
18701SOL    HW157544   4.798   5.463   2.155 -0.2652  1.0086  0.6758
18701SOL    HW257545   4.920   5.455   2.245 -0.1350 -0.1419  0.4150
18702SOL     OW57546   0.334   7.485   8.459  0.5444  0.1549 -0.1319
18702SOL    HW157547   0.397   7.494   8.530 -0.6555  1.0454  0.8747
18702SOL    HW257548   0.367   7.541   8.389  1.8668 -0.9188 -0.4169
18703SOL     OW57549   4.812   1.348   0.739  0.1195  0.2435 -0.5607
18703SOL    HW157550   4.812   1.311   0.827  0.1361  0.2871 -0.5424
18703SOL    HW257551   4.719   1.354   0.716  0.0883  0.7719 -0.3185
18704SOL     OW57552   0.947   3.258   7.499 -0.0015 -0.2937  0.5085
18704SOL    HW157553   0.947   3.307   7.417 -1.5581  0.1501  0.7334
18704SOL    HW257554   1.031   3.279   7.540  0.3343  0.3244 -0.4783
18705SOL     OW57555   1.448   2.052   6.457  0.4054 -0.0237  0.0253
18705SOL    HW157556   1.543   2.040   6.450  0.3365  0.0274 -1.1480
18705SOL    HW257557   1.438   2.145   6.478  0.6544 -0.3665  1.8719
18706SOL     OW57558   0.283   3.682   3.120  0.1008 -0.2485  0.4733
18706SOL    HW157559   0.282   3.612   3.055  3.2688 -1.3361  1.4185
18706SOL    HW257560   0.195   3.680   3.157 -0.3736 -2.8044 -0.5289
18707SOL     OW57561   1.100   6.080   6.173 -1.3215 -0.8236  0.2777
18707SOL    HW157562   1.068   6.081   6.263  0.5857  0.6847  0.9974
18707SOL    HW257563   1.185   6.036   6.178 -0.2989  0.9705 -0.4094
18708SOL     OW57564   3.814   2.211   2.288 -0.5591 -0.0355  0.2044
18708SOL    HW157565   3.891   2.264   2.270  1.0096 -2.3843 -0.5081
18708SOL    HW257566   3.795   2.225   2.380  1.0617  0.2006  0.5225
18709SOL     OW57567   3.952   6.772   1.335 -0.5802  0.4405  0.2209
18709SOL    HW157568   3.983   6.810   1.418 -0.3049 -1.2199  0.9166
18709SOL    HW257569   4.010   6.811   1.269 -0.5349  1.4800  0.8440
18710SOL     OW57570   6.497   4.884   9.987  0.3445  0.3215 -0.4626
18710SOL    HW157571   6.464   4.967   9.953 -0.7756  0.0021 -0.1783
18710SOL    HW257572   6.424   4.823   9.978  0.6246 -0.2357  0.8084
18711SOL     OW57573   2.601   2.546   4.379 -0.1025  0.0004 -0.4998
18711SOL    HW157574   2.549   2.507   4.449  0.2062 -2.3429 -1.4444
18711SOL    HW257575   2.540   2.603   4.332 -1.3007 -1.1307 -0.3882
18712SOL     OW57576   4.657   4.502  10.315  0.0697 -0.1444  0.0896
18712SOL    HW157577   4.613   4.540  10.391 -1.7491  0.9950 -1.4403
18712SOL    HW257578   4.710   4.431  10.350  0.3084  1.1540  2.5616
18713SOL     OW57579   2.266   1.368   2.267  1.1617  0.1775 -0.1929
18713SOL    HW157580   2.210   1.409   2.333  1.5081 -0.2969  0.4085
18713SOL    HW257581   2.343   1.425   2.262  1.0797  0.2800 -0.2725
18714SOL     OW57582   2.409   3.256   9.600  0.0568  0.5718 -0.3944
18714SOL    HW157583   2.438   3.166   9.588 -0.3479  0.5299 -1.0973
18714SOL    HW257584   2.405   3.292   9.512  0.1474  1.2581 -0.1245
18715SOL     OW57585   2.521   4.013  12.382  0.6759  0.3358 -0.3610
18715SOL    HW157586   2.544   3.950  12.451  0.6451 -0.6757 -1.2461
18715SOL    HW257587   2.566   4.094  12.407 -1.5526  0.9003  2.3303
18716SOL     OW57588   1.655   1.717   8.213  0.3053  0.3128  0.5178
18716SOL    HW157589   1.710   1.692   8.287  0.6614  3.1754  1.3567
18716SOL    HW257590   1.572   1.742   8.253  0.3655  1.4986 -0.0611
18717SOL     OW57591   3.040   4.746   1.184  0.0152  0.0198  0.3906
18717SOL    HW157592   3.001   4.760   1.270 -0.8919  0.3929 -0.0742
18717SOL    HW257593   3.130   4.719   1.203  0.2557  1.4293  1.4282
18718SOL     OW57594   0.299   7.417  12.175  0.1372  1.0363 -0.1618
18718SOL    HW157595   0.365   7.486  12.163 -0.3354  1.2680 -1.5440
18718SOL    HW257596   0.341   7.338  12.143 -0.5556  1.3619 -2.0054
18719SOL     OW57597   1.304   3.137   9.924 -0.3599  0.1805  0.0729
18719SOL    HW157598   1.261   3.143   9.838 -0.5150  2.0369  0.2409
18719SOL    HW257599   1.277   3.052   9.958 -2.1440  0.3504 -0.7725
18720SOL     OW57600   7.512   4.582   6.599 -0.3206 -0.5134 -0.5368
18720SOL    HW157601   7.459   4.661   6.598  1.3335  0.6471 -0.8629
18720SOL    HW257602   7.518   4.556   6.507 -1.4454 -1.4708 -0.3664
18721SOL     OW57603   2.443   1.641   8.270 -0.5505  0.6356 -0.6070
18721SOL    HW157604   2.505   1.571   8.251  1.2025  1.8070  0.5098
18721SOL    HW257605   2.399   1.613   8.350  0.5700  1.0304  0.1738
18722SOL     OW57606   7.682   5.994   0.819  0.2062 -0.2992 -0.3159
18722SOL    HW157607   7.638   6.007   0.735 -0.0074  1.5099  0.0248
18722SOL    HW257608   7.736   6.072   0.829  2.6070 -1.8815 -0.1455
18723SOL     OW57609   1.997   1.461   9.880 -0.1162  0.2326 -0.2506
18723SOL    HW157610   1.922   1.406   9.903  0.8227 -0.8355  0.3168
18723SOL    HW257611   1.997   1.531   9.945 -0.8322  0.4605 -0.4837
18724SOL     OW57612   2.991   5.155  11.947  0.7157 -0.1916 -0.2128
18724SOL    HW157613   3.051   5.081  11.946 -0.5537 -1.2406 -1.0019
18724SOL    HW257614   2.970   5.167  12.040 -0.3456 -1.8984 -0.2001
18725SOL     OW57615   7.070   5.739   9.101 -0.0072  0.6616  0.0628
18725SOL    HW157616   7.089   5.758   9.193 -0.1297  2.4966 -0.2610
18725SOL    HW257617   7.135   5.790   9.053  1.9799 -2.4728 -0.9070
18726SOL     OW57618   4.149   7.091   8.048 -0.1186  0.3180 -0.1731
18726SOL    HW157619   4.153   7.002   8.014 -0.8952  1.0045 -2.1893
18726SOL    HW257620   4.122   7.080   8.140  0.3397 -1.5147 -0.2105
18727SOL     OW57621   0.677   1.218   7.945  0.1310 -0.3650  0.8476
18727SOL    HW157622   0.584   1.197   7.953  0.0468 -0.3317  0.1038
18727SOL    HW257623   0.710   1.153   7.882  0.4385  0.0915  0.5331
18728SOL     OW57624   6.257   1.406   3.222  0.2164  0.2182 -0.1777
18728SOL    HW157625   6.223   1.486   3.181  0.7920  0.3706 -0.3671
18728SOL    HW257626   6.207   1.397   3.303 -0.5333  0.2346 -0.6207
18729SOL     OW57627   2.823   0.865   4.657 -0.0800 -0.2630 -0.1880
18729SOL    HW157628   2.868   0.918   4.723  1.6430 -0.5765 -1.0580
18729SOL    HW257629   2.781   0.929   4.600  0.6241  0.1189 -0.2924
18730SOL     OW57630   1.243   2.099   5.890 -0.0378 -0.3559 -0.1457
18730SOL    HW157631   1.289   2.094   5.974 -1.1212 -1.7972  0.4136
18730SOL    HW257632   1.178   2.168   5.901  0.4634  0.1141 -0.1351
18731SOL     OW57633   0.357   1.779  12.133 -0.2905 -0.6204  0.0845
18731SOL    HW157634   0.310   1.851  12.091  0.6461 -0.9892 -1.7177
18731SOL    HW257635   0.382   1.813  12.218 -0.3957  0.9851 -0.4844
18732SOL     OW57636   0.096   3.789   0.314  0.0830 -0.7800  0.1922
18732SOL    HW157637   0.149   3.790   0.394 -0.3590 -2.4373  0.5277
18732SOL    HW257638   0.155   3.757   0.247  0.0700 -0.6874  0.1364
18733SOL     OW57639   2.270   0.019   4.624  0.6282  0.1211  0.3130
18733SOL    HW157640   2.234  -0.056   4.670  0.5333  0.0632  0.1442
18733SOL    HW257641   2.229   0.095   4.665 -1.0742  0.0011 -1.0531
18734SOL     OW57642   7.777   1.441   0.284 -0.3555  0.3940  0.0814
18734SOL    HW157643   7.822   1.510   0.236 -0.8078 -0.0904 -1.0935
18734SOL    HW257644   7.839   1.368   0.287 -0.3761  0.3775  0.1103
18735SOL     OW57645   3.156   5.549  11.733  0.2347 -0.1531 -0.1422
18735SOL    HW157646   3.218   5.557  11.806  0.5370 -0.9189 -0.3078
18735SOL    HW257647   3.070   5.549  11.774  0.4455 -2.5429  0.4304
18736SOL     OW57648   4.436   2.380   8.052  0.2726 -0.1918 -0.6350
18736SOL    HW157649   4.368   2.447   8.061  1.5985  1.1917 -0.5829
18736SOL    HW257650   4.420   2.321   8.125 -0.1209  0.8050  0.1185
18737SOL     OW57651   5.734   7.677   6.394  0.5811 -0.6996  0.1916
18737SOL    HW157652   5.743   7.758   6.344 -0.3169 -0.5387  0.2718
18737SOL    HW257653   5.724   7.706   6.485  0.3834 -0.9002  0.2362
18738SOL     OW57654   0.063   5.318   3.695  0.0995  0.0042 -0.1028
18738SOL    HW157655   0.036   5.408   3.678 -1.2194 -0.1300  1.0962
18738SOL    HW257656   0.010   5.264   3.636  0.9642 -0.0031 -0.8966
18739SOL     OW57657   0.520   1.069  11.318 -0.5326 -0.1587 -0.5662
18739SOL    HW157658   0.610   1.066  11.285  0.0680  3.0748  0.4919
18739SOL    HW257659   0.529   1.075  11.413 -1.7515  1.6599 -0.5208
18740SOL     OW57660   7.369   7.396  11.342  0.1436 -0.2540 -0.4644
18740SOL    HW157661   7.439   7.462  11.347 -0.6369  0.5750 -0.3187
18740SOL    HW257662   7.293   7.444  11.309 -0.6698 -0.9030  0.4351
18741SOL     OW57663   6.857   2.824   3.551 -0.0346 -0.2099  1.0657
18741SOL    HW157664   6.873   2.796   3.642  0.4054  0.5003  1.2126
18741SOL    HW257665   6.844   2.918   3.557  0.9547 -0.0060  0.2792
18742SOL     OW57666   4.784   4.968   7.067 -0.5232 -0.0706 -0.3020
18742SOL    HW157667   4.828   4.990   6.984  0.1373  0.3611  0.1563
18742SOL    HW257668   4.692   4.986   7.049 -0.3280  0.4934 -0.7988
18743SOL     OW57669   7.587   7.680   5.981 -0.6986  0.6382  0.1981
18743SOL    HW157670   7.524   7.608   5.973  1.0911 -0.9970  0.0976
18743SOL    HW257671   7.657   7.644   6.035  0.5132  2.1331 -0.3174
18744SOL     OW57672   7.259   0.729   0.343  0.5961 -0.5798 -0.2810
18744SOL    HW157673   7.277   0.682   0.424 -0.3329  1.2133  1.0535
18744SOL    HW257674   7.167   0.753   0.349  0.8107  0.6213 -1.2935
18745SOL     OW57675   7.207   6.396   8.178 -0.4298 -0.2659 -0.0083
18745SOL    HW157676   7.117   6.427   8.169  0.0236  2.5580  3.2085
18745SOL    HW257677   7.204   6.334   8.251  0.1764 -0.5418 -0.2091
18746SOL     OW57678   4.010   2.830   3.625  0.3149 -0.0229  0.4242
18746SOL    HW157679   4.039   2.795   3.541 -1.8339 -1.4510  0.2143
18746SOL    HW257680   3.971   2.915   3.604  0.4102 -0.0619  0.0939
18747SOL     OW57681   6.635   5.957   1.273  0.0091  0.1320 -0.2820
18747SOL    HW157682   6.652   5.936   1.181  1.3183 -0.0711 -0.0182
18747SOL    HW257683   6.659   5.877   1.321 -1.9089 -0.2359  0.1595
18748SOL     OW57684   4.657   7.487   9.477 -0.0902 -0.0593 -0.3604
18748SOL    HW157685   4.675   7.577   9.448  0.0884  0.4329  1.1822
18748SOL    HW257686   4.575   7.463   9.433  0.5428  0.3368 -1.8344
18749SOL     OW57687   3.511   0.808   9.559 -0.1921  0.5265  0.0146
18749SOL    HW157688   3.491   0.895   9.594 -0.1781  0.9391 -0.9550
18749SOL    HW257689   3.515   0.822   9.464  2.2837 -0.0076 -0.0355
18750SOL     OW57690   4.713   0.533   3.005 -0.1416  0.1277  0.5693
18750SOL    HW157691   4.798   0.526   3.050  1.4010  0.5507 -2.1034
18750SOL    HW257692   4.649   0.539   3.077  1.9985 -0.7362  2.6913
18751SOL     OW57693   7.710   3.226   8.077 -0.8074  0.6680  0.2861
18751SOL    HW157694   7.736   3.316   8.062 -0.6973  0.9449  1.9065
18751SOL    HW257695   7.682   3.194   7.992  0.8950  1.6406 -0.6793
18752SOL     OW57696   6.750   6.888   3.401  0.3666  0.8197  0.4005
18752SOL    HW157697   6.822   6.834   3.432 -0.4306 -0.6250 -0.1915
18752SOL    HW257698   6.745   6.960   3.464  0.0683 -0.9352  2.4909
18753SOL     OW57699   3.116   0.201   3.964 -0.0895 -1.0829 -0.4164
18753SOL    HW157700   3.188   0.164   4.016 -0.8987  0.4535  2.0168
18753SOL    HW257701   3.037   0.170   4.009 -0.8183  0.8108 -0.3305
18754SOL     OW57702   0.668   3.455   1.658  0.2416  0.1449  0.3026
18754SOL    HW157703   0.761   3.436   1.663  0.2045  0.1590  1.0920
18754SOL    HW257704   0.632   3.428   1.742 -0.2561  1.2373  0.4731
18755SOL     OW57705   4.334   5.430   4.600  0.2895 -0.2472  0.2484
18755SOL    HW157706   4.297   5.352   4.558  0.5498  0.2568 -0.9618
18755SOL    HW257707   4.418   5.400   4.635  0.2379 -0.5942  0.0885
18756SOL     OW57708   4.741   2.925  12.325 -0.4222  0.2146 -0.0407
18756SOL    HW157709   4.795   2.883  12.392  0.6996  2.3704  0.5149
18756SOL    HW257710   4.759   2.877  12.245  1.3220  0.0554  0.4128
18757SOL     OW57711   3.113   7.471   6.986 -0.1493 -0.3096  0.3303
18757SOL    HW157712   3.140   7.547   6.934 -0.8026  0.2871  0.8432
18757SOL    HW257713   3.186   7.457   7.047 -0.1318  0.0646  0.3968
18758SOL     OW57714   2.425   6.912   3.723 -0.9159  0.3958 -0.2403
18758SOL    HW157715   2.429   6.995   3.676  0.3338 -0.3230 -1.4775
18758SOL    HW257716   2.499   6.861   3.689 -1.6654 -1.2447  0.4613
18759SOL     OW57717   2.871   6.857   3.422  0.3130 -0.1850  0.1748
18759SOL    HW157718   2.902   6.808   3.346 -0.0192 -0.1039 -0.0129
18759SOL    HW257719   2.863   6.947   3.391 -0.5044 -0.2755  0.1077
18760SOL     OW57720   5.494   4.440   7.796  0.2268  0.8701  0.2802
18760SOL    HW157721   5.429   4.510   7.798  0.3460  0.9840  0.1578
18760SOL    HW257722   5.557   4.467   7.729  1.3258  1.5670  1.5725
18761SOL     OW57723   5.144   6.447  11.701  0.7849 -0.0961 -0.1548
18761SOL    HW157724   5.143   6.537  11.668  1.6251  0.6147  1.5856
18761SOL    HW257725   5.235   6.419  11.689  0.9207 -0.0932  0.8002
18762SOL     OW57726   3.523   5.367   5.477 -0.0544  0.1845 -0.2878
18762SOL    HW157727   3.503   5.281   5.439 -1.5916  0.2375  0.3052
18762SOL    HW257728   3.522   5.427   5.403 -0.3205 -0.1197 -0.5349
18763SOL     OW57729   0.246   3.058   5.152 -0.0431 -0.0977  0.2367
18763SOL    HW157730   0.249   3.079   5.246  1.9862  0.0851  0.1843
18763SOL    HW257731   0.311   2.989   5.142 -0.9078 -0.7605 -0.9065
18764SOL     OW57732   5.792   3.247  12.312 -0.0989 -0.0959 -0.1876
18764SOL    HW157733   5.769   3.169  12.362 -1.7646  0.7931  0.5240
18764SOL    HW257734   5.840   3.302  12.375 -0.2294  0.0707 -0.2326
18765SOL     OW57735   2.656   3.842   2.865 -0.1935 -0.0182  0.5838
18765SOL    HW157736   2.705   3.890   2.799 -1.5837  0.5658 -0.0565
18765SOL    HW257737   2.667   3.750   2.842 -0.4916  0.1712 -0.3484
18766SOL     OW57738   1.228   1.816  10.337 -0.1791 -0.4401 -0.1356
18766SOL    HW157739   1.312   1.802  10.294  0.1930  3.6843 -1.1452
18766SOL    HW257740   1.169   1.845  10.267 -1.3324  0.4020  1.1256
18767SOL     OW57741   3.767   1.849   6.524  0.5762 -0.5094 -0.4005
18767SOL    HW157742   3.734   1.804   6.602  0.5336  0.2520  0.0374
18767SOL    HW257743   3.728   1.936   6.529  0.2069 -0.5956 -1.5283
18768SOL     OW57744   2.435   2.484   3.257 -0.0195  0.1619  0.1118
18768SOL    HW157745   2.437   2.511   3.349 -0.2065  1.0610 -0.1405
18768SOL    HW257746   2.466   2.393   3.258  1.5425  0.6779  0.8691
18769SOL     OW57747   4.279   4.149   8.311  0.2869 -0.4820  0.3353
18769SOL    HW157748   4.324   4.222   8.353  1.7973 -1.0814 -0.1773
18769SOL    HW257749   4.234   4.104   8.383 -0.6155  0.8800  0.6641
18770SOL     OW57750   6.785   2.093   0.024  0.6543  0.4255  0.3119
18770SOL    HW157751   6.697   2.075  -0.008  0.8895 -0.9114  0.3641
18770SOL    HW257752   6.811   2.174  -0.022  0.5158 -0.7349 -1.9747
18771SOL     OW57753   5.538   5.980   1.824  0.3109 -0.0244  0.3451
18771SOL    HW157754   5.612   5.941   1.778 -0.1350  1.2727 -1.6262
18771SOL    HW257755   5.461   5.944   1.780 -0.1332  1.4703 -0.1435
18772SOL     OW57756   7.573   6.819   6.682  0.1668 -0.0954  0.3407
18772SOL    HW157757   7.574   6.901   6.632  2.9440  0.1344  0.5910
18772SOL    HW257758   7.612   6.842   6.766  0.4604 -1.5550  0.6303
18773SOL     OW57759   5.666   0.914   4.590  0.5645 -0.0409  0.0503
18773SOL    HW157760   5.715   0.984   4.547 -1.1296  0.2876 -1.4695
18773SOL    HW257761   5.714   0.835   4.568  0.7723  0.3286 -0.8894
18774SOL     OW57762   6.543   6.807   0.258  0.3950 -0.9920 -0.2813
18774SOL    HW157763   6.530   6.889   0.210 -1.1666 -1.9835 -1.6695
18774SOL    HW257764   6.531   6.831   0.350  0.8685  0.4843 -0.5762
18775SOL     OW57765   2.248   7.442   9.636 -0.5334  0.6623 -0.0820
18775SOL    HW157766   2.310   7.498   9.589 -0.2077 -0.3806 -0.9129
18775SOL    HW257767   2.301   7.401   9.705  0.0848 -1.2816 -1.6272
18776SOL     OW57768   5.164   3.096   7.655 -0.8756  0.2047  0.1892
18776SOL    HW157769   5.152   3.036   7.729  0.0384  1.0405  1.0441
18776SOL    HW257770   5.214   3.169   7.691 -2.8634  2.0340 -0.5406
18777SOL     OW57771   7.416   7.863   6.070  0.2180 -0.3767  0.0347
18777SOL    HW157772   7.476   7.795   6.042  1.2881  0.1519  0.9540
18777SOL    HW257773   7.452   7.944   6.032 -0.3291 -0.1605 -0.0304
18778SOL     OW57774   5.872   1.847   8.792 -0.0888  0.0237  0.7742
18778SOL    HW157775   5.852   1.935   8.825 -0.6712  0.4230 -0.5616
18778SOL    HW257776   5.961   1.829   8.823  0.6033  1.6894 -0.0982
18779SOL     OW57777   6.565   4.155   0.075 -0.7792  0.4522  0.0142
18779SOL    HW157778   6.642   4.111   0.112 -0.2399  0.5255 -0.9880
18779SOL    HW257779   6.537   4.215   0.144 -0.2606  0.0474  0.5939
18780SOL     OW57780   2.990   1.606   6.178 -0.0828 -0.5310  0.0245
18780SOL    HW157781   2.937   1.636   6.252  0.0355 -0.2441 -0.0022
18780SOL    HW257782   2.960   1.517   6.161 -0.7331 -0.2843 -0.1549
18781SOL     OW57783   6.655   1.601   7.789 -0.2072 -0.0857 -0.1011
18781SOL    HW157784   6.681   1.524   7.738  2.3799  1.1777 -0.8699
18781SOL    HW257785   6.700   1.591   7.873  0.6856  0.8571 -0.4464
18782SOL     OW57786   7.122   1.007  11.413 -0.2051 -0.7422  0.2361
18782SOL    HW157787   7.047   1.059  11.442  0.3418  0.7043 -0.8382
18782SOL    HW257788   7.197   1.047  11.459  0.0644 -1.4086  0.3810
18783SOL     OW57789   5.751   1.554   9.071 -0.0177  0.1124 -0.7449
18783SOL    HW157790   5.737   1.588   8.982  0.3846  0.5600 -0.6417
18783SOL    HW257791   5.664   1.525   9.099 -0.8328  2.7760 -0.1570
18784SOL     OW57792   5.518   4.132   4.483  0.2457 -0.7043 -0.2241
18784SOL    HW157793   5.530   4.038   4.475 -1.3031 -0.9014 -0.5372
18784SOL    HW257794   5.433   4.149   4.441 -0.6589  0.4661  1.9354
18785SOL     OW57795   7.401   4.924  11.893 -0.0514  0.4504  0.7119
18785SOL    HW157796   7.474   4.862  11.903 -0.7699 -0.4106  0.7525
18785SOL    HW257797   7.408   4.982  11.969  0.0168 -0.2481  1.2500
18786SOL     OW57798   3.772   3.928   9.444  0.3105  0.3572  0.4746
18786SOL    HW157799   3.694   3.982   9.431 -0.4650 -0.6263  0.9320
18786SOL    HW257800   3.767   3.861   9.376  1.2766  0.8318 -0.1005
18787SOL     OW57801   3.610   5.608   3.593  0.5175  0.5778 -0.4116
18787SOL    HW157802   3.533   5.628   3.540  0.7789  1.1104 -0.5906
18787SOL    HW257803   3.574   5.566   3.672  0.0377  0.9449 -0.4281
18788SOL     OW57804   1.891   5.475   5.951 -0.0215 -0.0451  0.2543
18788SOL    HW157805   1.808   5.428   5.962  0.5729 -0.8558  1.5035
18788SOL    HW257806   1.919   5.455   5.862 -3.0090  3.3466 -1.7082
18789SOL     OW57807   1.309   3.612   2.623 -0.2230  0.2307 -0.8131
18789SOL    HW157808   1.365   3.689   2.613  0.7282 -0.5628 -1.8395
18789SOL    HW257809   1.339   3.551   2.555 -2.7364  0.0155 -1.8761
18790SOL     OW57810   7.069   1.160  12.099  0.3123 -0.2907  0.7328
18790SOL    HW157811   7.058   1.220  12.025  1.6518  1.0713  1.5850
18790SOL    HW257812   7.128   1.092  12.066 -1.3501 -1.3212 -0.2915
18791SOL     OW57813   0.617   6.597  10.010  0.6010 -0.1500 -0.2328
18791SOL    HW157814   0.677   6.636  10.073 -1.0342 -0.9918  1.9596
18791SOL    HW257815   0.575   6.672   9.967  0.0729  0.5027  1.3680
18792SOL     OW57816   4.776   0.342   4.507  0.3617  0.1112 -0.0549
18792SOL    HW157817   4.855   0.366   4.555 -0.6422  0.7231  1.3611
18792SOL    HW257818   4.754   0.255   4.540 -0.1974  0.4364  0.4621
18793SOL     OW57819   7.254   6.603  11.309  0.0015  0.3027 -0.4709
18793SOL    HW157820   7.181   6.643  11.357  0.3588  0.1769  0.1849
18793SOL    HW257821   7.220   6.590  11.221 -0.8177  0.1230 -0.1413
18794SOL     OW57822   2.813   6.273  10.435  0.2947 -0.1197  0.2024
18794SOL    HW157823   2.818   6.183  10.466 -0.7092 -0.7236 -1.2868
18794SOL    HW257824   2.730   6.306  10.470  1.3175  0.7824  1.9834
18795SOL     OW57825   0.770   6.877  12.004  0.5587  0.9195 -0.9642
18795SOL    HW157826   0.803   6.796  11.965  1.1255  0.6200  0.1094
18795SOL    HW257827   0.773   6.941  11.933  1.0814  0.2637 -1.5439
18796SOL     OW57828   2.544   0.350  11.663  0.1070 -0.0419  0.1250
18796SOL    HW157829   2.500   0.388  11.587  0.0585  1.0360  0.6697
18796SOL    HW257830   2.583   0.269  11.631  0.4339  0.6000 -1.1546
18797SOL     OW57831   5.646   4.178   8.966 -0.4810 -0.4595  0.1273
18797SOL    HW157832   5.726   4.231   8.964 -0.1752 -0.9423 -0.7131
18797SOL    HW257833   5.651   4.130   9.048 -1.0212  1.1823  1.1824
18798SOL     OW57834   2.150   2.347  10.869  0.4025  0.1126 -0.0464
18798SOL    HW157835   2.110   2.353  10.782  0.2887  0.1477  0.0081
18798SOL    HW257836   2.119   2.263  10.903  0.6360 -0.0084 -0.1338
18799SOL     OW57837   4.124   5.921  12.058 -0.0700  0.0845  0.4350
18799SOL    HW157838   4.068   5.997  12.040 -1.3978 -1.0830 -0.5189
18799SOL    HW257839   4.194   5.927  11.993 -1.2031 -0.4912 -0.8850
18800SOL     OW57840   0.505   2.358   8.187  0.0627 -0.6549  0.0092
18800SOL    HW157841   0.552   2.353   8.104 -0.1834 -0.4481 -0.1430
18800SOL    HW257842   0.414   2.373   8.163  0.3310  2.0915  0.3243
18801SOL     OW57843   7.446   1.467   1.900  0.1491 -0.1086  0.0647
18801SOL    HW157844   7.460   1.526   1.974  0.9025 -0.6312  0.3508
18801SOL    HW257845   7.501   1.391   1.919 -0.5952 -0.7886 -0.4319
18802SOL     OW57846   4.132   2.664   8.501 -0.3416  0.0193  0.3403
18802SOL    HW157847   4.056   2.680   8.445  0.3062  0.8543 -0.3222
18802SOL    HW257848   4.204   2.708   8.457  0.7505 -1.5967  0.4331
18803SOL     OW57849   4.575   2.877   6.843 -0.4844  0.4239  0.2641
18803SOL    HW157850   4.597   2.858   6.934 -2.7769 -0.0362  0.7775
18803SOL    HW257851   4.483   2.852   6.834 -0.3671  0.5719 -2.1573
18804SOL     OW57852   3.265   4.687   0.725  0.1877  0.1933 -0.0609
18804SOL    HW157853   3.324   4.759   0.746  0.4214  0.4673 -1.5034
18804SOL    HW257854   3.191   4.696   0.785 -0.2417  2.2329 -0.8328
18805SOL     OW57855   7.394   3.267   4.110 -0.4819  0.7737 -0.2030
18805SOL    HW157856   7.448   3.294   4.036 -1.0886  1.3569 -0.4360
18805SOL    HW257857   7.345   3.345   4.135 -2.2372 -0.0674 -0.8585
18806SOL     OW57858   2.405   7.401   9.914  0.3835  0.5855  0.7897
18806SOL    HW157859   2.438   7.487   9.891  0.4722  0.6178  1.0385
18806SOL    HW257860   2.477   7.341   9.892 -0.2432  0.3861 -0.8848
18807SOL     OW57861   2.704   6.153   7.494  0.1346  0.0263  0.2870
18807SOL    HW157862   2.769   6.190   7.554 -0.3482 -1.5705  1.9015
18807SOL    HW257863   2.754   6.091   7.441  0.4772  1.1106 -0.6991
18808SOL     OW57864   7.819   3.685   2.375 -0.4819  1.1629 -0.0852
18808SOL    HW157865   7.855   3.694   2.463 -0.8304  1.1867  0.0589
18808SOL    HW257866   7.823   3.773   2.338 -1.8929  1.5193  0.5336
18809SOL     OW57867   3.515   6.728  11.934  0.0646  0.1420 -0.0974
18809SOL    HW157868   3.502   6.739  12.028  1.5581  2.7544 -0.0894
18809SOL    HW257869   3.603   6.692  11.925  0.1755  0.4910 -0.4863
18810SOL     OW57870   0.930   1.943  11.517 -0.1640  0.5272  0.6060
18810SOL    HW157871   0.877   1.987  11.450  0.4008  0.3570  0.0378
18810SOL    HW257872   0.967   2.014  11.569 -0.2860  0.6766  0.4896
18811SOL     OW57873   6.735   7.383   1.320  0.7248  0.0879 -0.5655
18811SOL    HW157874   6.771   7.450   1.378  0.7995 -0.1881 -0.2929
18811SOL    HW257875   6.679   7.432   1.259 -1.5753  0.1450  1.4198
18812SOL     OW57876   1.344   0.381   0.222 -0.3613  0.1826 -0.3978
18812SOL    HW157877   1.253   0.398   0.245 -0.7552 -1.2840 -0.7801
18812SOL    HW257878   1.390   0.461   0.248 -1.2674 -0.1143  2.5190
18813SOL     OW57879   5.806   6.287   0.274  0.8885 -0.2048 -0.0325
18813SOL    HW157880   5.721   6.302   0.233  1.0525  0.1365 -0.2475
18813SOL    HW257881   5.864   6.350   0.233  1.1343 -0.0952  0.4749
18814SOL     OW57882   4.886   7.426   4.177 -0.3084 -0.0826 -0.1170
18814SOL    HW157883   4.961   7.389   4.223 -1.7828 -0.8332  1.8272
18814SOL    HW257884   4.889   7.520   4.197  0.8955  0.1592 -1.2915
18815SOL     OW57885   4.665   3.644   1.997  0.5981 -0.0460 -0.0954
18815SOL    HW157886   4.740   3.656   1.938  0.4833  3.6216  0.2568
18815SOL    HW257887   4.695   3.679   2.081 -0.9828 -0.0275  0.4957
18816SOL     OW57888   7.358   4.875   3.182  0.0394  0.2013 -0.3090
18816SOL    HW157889   7.429   4.855   3.242  0.4346  1.1339 -0.4454
18816SOL    HW257890   7.288   4.813   3.205 -0.1496  1.0907  1.7084
18817SOL     OW57891   0.509   4.360   0.723 -0.4410 -0.0588 -0.1287
18817SOL    HW157892   0.599   4.371   0.693 -0.5392 -1.6450 -1.1003
18817SOL    HW257893   0.516   4.306   0.802 -0.4143  1.6287  1.0778
18818SOL     OW57894   0.767   1.805   5.698  0.0990 -0.2661 -0.0524
18818SOL    HW157895   0.703   1.824   5.629 -0.7943 -0.7116  0.6402
18818SOL    HW257896   0.788   1.713   5.686 -0.0840 -0.3539  0.2878
18819SOL     OW57897   6.244   6.109   1.554  0.8000  0.1847  0.2417
18819SOL    HW157898   6.235   6.203   1.540 -0.9801  0.1118  0.6797
18819SOL    HW257899   6.332   6.099   1.590  2.2801  1.2826 -2.7228
18820SOL     OW57900   1.120   2.813   0.041 -0.0409  0.0195  0.5255
18820SOL    HW157901   1.204   2.800   0.084  0.0794  1.5791  0.8006
18820SOL    HW257902   1.063   2.846   0.110  0.0866  2.3008 -0.3884
18821SOL     OW57903   4.028   4.690  12.189  1.1000  0.9876 -0.6107
18821SOL    HW157904   4.101   4.644  12.231  0.1581  0.2870  0.3184
18821SOL    HW257905   4.043   4.782  12.211  1.6824  0.8538 -0.4137
18822SOL     OW57906   0.609   7.273   8.612 -0.8129 -0.2468 -0.0510
18822SOL    HW157907   0.547   7.286   8.684 -0.7640 -0.8092  0.0920
18822SOL    HW257908   0.607   7.179   8.595  0.3725 -0.3448  0.2885
18823SOL     OW57909   0.072   5.385   9.479  0.1263 -0.2687 -0.2238
18823SOL    HW157910   0.133   5.440   9.529 -0.7638  1.5720 -1.0795
18823SOL    HW257911   0.125   5.312   9.448  1.3556  0.0911  0.9688
18824SOL     OW57912   0.192   3.763   0.557  0.5570  0.3062  0.3596
18824SOL    HW157913   0.127   3.767   0.627 -2.4435  0.7904 -2.2638
18824SOL    HW257914   0.260   3.825   0.584 -0.4198  0.4346  2.8239
18825SOL     OW57915   7.739   6.465  11.371  0.3683  0.4208 -0.2552
18825SOL    HW157916   7.773   6.490  11.457  0.0677  3.5344 -0.9163
18825SOL    HW257917   7.661   6.520  11.360 -0.7477 -1.3466 -1.7390
18826SOL     OW57918   4.118   1.358   8.621 -0.1860 -0.4385  0.0722
18826SOL    HW157919   4.102   1.270   8.587 -1.7046  0.3340 -1.3710
18826SOL    HW257920   4.038   1.381   8.668 -0.3875  0.6549 -0.7479
18827SOL     OW57921   7.754   5.904   3.256  0.5123  0.3379  0.4241
18827SOL    HW157922   7.696   5.904   3.332 -0.1297 -0.9391 -0.0361
18827SOL    HW257923   7.777   5.812   3.243 -0.9746  0.2163 -2.0727
18828SOL     OW57924   5.682   3.765   5.378  0.3658  0.4864  0.3167
18828SOL    HW157925   5.695   3.681   5.422 -1.0132  0.0079 -0.1366
18828SOL    HW257926   5.770   3.792   5.351  0.8205 -0.8571  0.3915
18829SOL     OW57927   3.630   3.226   2.117 -0.3283 -0.2031 -0.0762
18829SOL    HW157928   3.582   3.175   2.052 -0.4282  0.5428 -0.6023
18829SOL    HW257929   3.617   3.317   2.091  2.0144  0.0176 -0.7333
18830SOL     OW57930   7.119   3.589  12.311 -0.3378  1.2800  0.0454
18830SOL    HW157931   7.070   3.612  12.232  0.2028  2.8164  0.1196
18830SOL    HW257932   7.102   3.661  12.371 -2.4858 -0.8270  2.2156
18831SOL     OW57933   6.879   4.297  10.568  0.0756 -0.1820  0.5902
18831SOL    HW157934   6.899   4.339  10.484 -0.0779 -0.3740  0.4581
18831SOL    HW257935   6.904   4.205  10.555  0.8845 -0.0349  1.0404
18832SOL     OW57936   3.771   0.129  10.035  0.5012 -0.2604  0.3567
18832SOL    HW157937   3.751   0.054   9.980  3.3796 -0.6529 -0.2938
18832SOL    HW257938   3.767   0.096  10.125 -1.0741 -0.4060  0.2612
18833SOL     OW57939   0.518   5.056  11.635  0.1958  0.3820 -0.3668
18833SOL    HW157940   0.577   4.984  11.615  1.1465  1.0728 -0.1146
18833SOL    HW257941   0.546   5.128  11.578 -1.7278  0.1205 -1.7597
18834SOL     OW57942   7.371   2.251   9.004 -0.4080 -0.1962  0.0241
18834SOL    HW157943   7.435   2.264   9.074 -1.5010 -0.5148  1.1348
18834SOL    HW257944   7.405   2.301   8.930  1.2122 -0.5344  0.5032
18835SOL     OW57945   4.430   7.392  11.255 -0.5054  0.5504 -0.0806
18835SOL    HW157946   4.431   7.297  11.247 -1.8784  0.4559  0.5380
18835SOL    HW257947   4.448   7.409  11.347 -1.5704  0.8071  0.0958
18836SOL     OW57948   1.411   0.736   7.736  0.0703  0.1728 -0.3966
18836SOL    HW157949   1.404   0.774   7.824 -1.7033  1.9538 -1.2271
18836SOL    HW257950   1.505   0.726   7.722  0.4314  0.8446  1.2906
18837SOL     OW57951   5.845   5.230   9.535  1.3235 -0.2420 -0.2154
18837SOL    HW157952   5.920   5.195   9.488  1.1873  1.5883 -1.9410
18837SOL    HW257953   5.781   5.252   9.466  0.1685  0.4138  1.0113
18838SOL     OW57954   7.515   6.808   5.918 -0.1564  0.1088  0.0539
18838SOL    HW157955   7.463   6.878   5.878 -0.9633  1.2392  2.8081
18838SOL    HW257956   7.532   6.747   5.847 -3.8063  0.5572 -1.4427
18839SOL     OW57957   7.752   1.314   4.078 -0.6017  0.2764 -0.1242
18839SOL    HW157958   7.833   1.324   4.027  0.8335  0.1220  2.0131
18839SOL    HW257959   7.705   1.396   4.064 -0.9589 -0.2774 -2.7476
18840SOL     OW57960   2.964   7.375   2.882 -0.5831  0.4917 -0.2061
18840SOL    HW157961   2.910   7.453   2.865 -0.5785  0.8611  1.2573
18840SOL    HW257962   2.910   7.322   2.942 -0.1376 -0.1039 -0.3268
18841SOL     OW57963   7.421   4.630   2.747 -0.2552  0.4365  0.1937
18841SOL    HW157964   7.354   4.563   2.763 -0.9381  0.8626 -0.8243
18841SOL    HW257965   7.404   4.697   2.814  1.3629 -1.0201  2.2134
18842SOL     OW57966   1.060   7.763  10.372 -0.5661  0.0583 -0.6672
18842SOL    HW157967   1.142   7.778  10.324  0.4287 -0.7592  0.7069
18842SOL    HW257968   1.008   7.841  10.354  1.9362  2.3500  1.2303
18843SOL     OW57969   3.561   7.574   2.907  0.8134 -0.2646 -0.1083
18843SOL    HW157970   3.523   7.652   2.949  0.4496  0.1176 -1.1247
18843SOL    HW257971   3.504   7.502   2.933  0.4484  0.0110 -0.1346
18844SOL     OW57972   5.604   6.419   3.543 -0.1700  0.6119  0.1728
18844SOL    HW157973   5.675   6.455   3.489 -0.7767  1.1407 -0.3022
18844SOL    HW257974   5.578   6.492   3.599 -1.2921  0.8845 -0.6680
18845SOL     OW57975   2.575   6.046   9.498 -0.4768  0.5732  0.1808
18845SOL    HW157976   2.645   5.982   9.511 -1.8780 -1.1638 -0.3475
18845SOL    HW257977   2.618   6.121   9.457  1.2161 -0.0313  0.7462
18846SOL     OW57978   2.217   7.442  10.945 -0.3891  0.4282 -0.3006
18846SOL    HW157979   2.226   7.415  11.037  0.2333  0.6067 -0.3020
18846SOL    HW257980   2.266   7.524  10.940  0.9439 -0.3718 -1.1309
18847SOL     OW57981   2.599   3.790   2.311 -0.2940  0.1749  0.3452
18847SOL    HW157982   2.616   3.761   2.222  1.5463 -0.8923  1.0002
18847SOL    HW257983   2.512   3.831   2.307 -0.5357 -0.4619 -1.7660
18848SOL     OW57984   2.929   6.412  12.382 -0.2857 -0.3323 -0.2964
18848SOL    HW157985   2.856   6.468  12.409 -0.0031 -0.3454  0.5183
18848SOL    HW257986   2.932   6.421  12.287 -0.7084  0.4622 -0.2454
18849SOL     OW57987   0.062   1.266   3.558  0.1856 -0.0344 -0.3770
18849SOL    HW157988   0.033   1.344   3.512  0.4362  1.8458  2.4167
18849SOL    HW257989   0.134   1.232   3.505  0.6863  2.1895 -1.2416
18850SOL     OW57990   4.081   5.271   0.538  0.2196 -0.2317  0.3176
18850SOL    HW157991   4.107   5.287   0.447 -1.0945  1.5971  0.2048
18850SOL    HW257992   4.070   5.176   0.544  0.4448 -0.4019 -1.3933
18851SOL     OW57993   1.979   2.236   2.563  0.5553  0.1078  0.4092
18851SOL    HW157994   1.906   2.174   2.572 -0.0498  1.1118  3.2939
18851SOL    HW257995   2.028   2.203   2.488 -1.2052 -2.3282  0.1915
18852SOL     OW57996   5.470   4.412   8.109  0.4435  0.2859 -0.3046
18852SOL    HW157997   5.483   4.318   8.100  1.1997  0.3660 -0.1638
18852SOL    HW257998   5.433   4.440   8.025  0.7332 -0.0544 -0.5469
18853SOL     OW57999   1.403   1.610   2.978 -0.4606  0.4077 -0.0278
18853SOL    HW158000   1.420   1.594   3.071  0.6035  0.4533 -0.2033
18853SOL    HW258001   1.330   1.552   2.957  0.1216 -0.5509  0.5318
18854SOL     OW58002   7.242   4.620   5.084 -0.2332 -0.5262  0.2302
18854SOL    HW158003   7.254   4.541   5.138  1.6243 -0.1801  0.3617
18854SOL    HW258004   7.154   4.651   5.107  0.2226 -0.7951  2.5272
18855SOL     OW58005   7.340   3.331   1.185  0.0651 -0.6879 -0.1559
18855SOL    HW158006   7.378   3.416   1.163  0.7432 -0.7531  0.7519
18855SOL    HW258007   7.305   3.341   1.273 -1.5222 -0.8111 -0.7312
18856SOL     OW58008   2.657   4.512   1.554 -0.0766  0.0174  0.4536
18856SOL    HW158009   2.593   4.442   1.546  1.3770 -1.4032  0.5705
18856SOL    HW258010   2.614   4.589   1.518 -2.0625 -0.7045  1.1636
18857SOL     OW58011   7.268   4.016   4.072 -0.2704  0.0697  0.3124
18857SOL    HW158012   7.198   4.042   4.132 -0.1270 -1.2561  1.0958
18857SOL    HW258013   7.260   4.076   3.998  0.6306  2.9285  2.3620
18858SOL     OW58014   6.238   3.094   7.613 -0.1228  0.2379 -0.2211
18858SOL    HW158015   6.293   3.018   7.632 -0.9120  0.1218  1.9409
18858SOL    HW258016   6.196   3.073   7.530 -2.7770 -3.2869  1.7437
18859SOL     OW58017   7.155   3.869   2.333 -0.0182 -0.0728 -0.1263
18859SOL    HW158018   7.140   3.956   2.295  1.0986 -0.4924 -1.6395
18859SOL    HW258019   7.070   3.826   2.326 -0.1143  0.2500 -1.2003
18860SOL     OW58020   0.102   1.742   8.797  0.2089  0.0133 -0.4594
18860SOL    HW158021   0.095   1.772   8.706  0.9637 -0.1702 -0.5822
18860SOL    HW258022   0.091   1.647   8.792  0.1738  0.0107 -0.3441
18861SOL     OW58023   5.130   5.960   1.170 -0.0524  0.1707 -0.0450
18861SOL    HW158024   5.191   6.026   1.136  0.9359 -0.2073  0.9176
18861SOL    HW258025   5.177   5.920   1.243 -0.3396 -2.0778 -1.0111
18862SOL     OW58026   4.288   4.706   2.005  0.4339 -0.0135 -0.3267
18862SOL    HW158027   4.369   4.671   2.044  0.4107  0.2810 -0.0149
18862SOL    HW258028   4.317   4.745   1.922  0.8404  1.3517  0.4422
18863SOL     OW58029   2.790   6.214  11.025 -0.0296 -0.1851  0.5246
18863SOL    HW158030   2.827   6.175  10.946 -1.4629  1.1800 -0.9136
18863SOL    HW258031   2.706   6.169  11.037  0.1525 -0.3479  1.2607
18864SOL     OW58032   0.801   6.980   9.428 -0.5460  0.0120  0.4053
18864SOL    HW158033   0.787   6.916   9.359  1.3126  1.8984 -1.9392
18864SOL    HW258034   0.864   6.939   9.488  0.3244 -0.5263 -0.8411
18865SOL     OW58035   3.229   2.454   4.022 -0.3585 -0.0163 -0.2056
18865SOL    HW158036   3.199   2.391   3.958 -0.9099  0.2791 -0.2407
18865SOL    HW258037   3.317   2.478   3.993 -0.8066  0.5147 -1.1543
18866SOL     OW58038   2.341   3.899   0.448 -0.2225 -0.5006 -0.4077
18866SOL    HW158039   2.268   3.840   0.429 -0.1168 -1.3692  1.5496
18866SOL    HW258040   2.301   3.985   0.458 -0.8756 -0.8287 -0.1491
18867SOL     OW58041   6.555   6.600   1.482 -0.1182 -0.2225 -0.3014
18867SOL    HW158042   6.517   6.640   1.560 -0.1693 -0.6616 -0.0980
18867SOL    HW258043   6.485   6.604   1.417 -0.5702 -1.1179  0.1021
18868SOL     OW58044   4.191   7.055   2.444 -0.5743  0.1066 -0.2709
18868SOL    HW158045   4.209   7.037   2.352 -0.0233  0.7422 -0.2968
18868SOL    HW258046   4.264   7.111   2.472 -1.8429  1.7125 -0.0304
18869SOL     OW58047   6.895   4.572   8.695 -0.5343  0.0854 -0.3273
18869SOL    HW158048   6.935   4.568   8.609  0.0176  0.5284 -0.0985
18869SOL    HW258049   6.839   4.495   8.699  0.5782 -0.7649 -0.5261
18870SOL     OW58050   3.336   3.025   9.947  0.3278  0.9291  0.1119
18870SOL    HW158051   3.350   3.119   9.932 -3.3135  1.7953  1.0704
18870SOL    HW258052   3.303   2.992   9.864 -0.8681  1.1634  0.4676
18871SOL     OW58053   0.491   4.379  11.595 -0.6053 -0.8295  0.2077
18871SOL    HW158054   0.537   4.461  11.609 -0.9560 -0.9205  2.0897
18871SOL    HW258055   0.545   4.331  11.532  0.7281 -0.0488  0.7267
18872SOL     OW58056   7.535   5.775  12.037 -0.2684 -0.3242 -0.2770
18872SOL    HW158057   7.494   5.709  11.982 -0.5210 -1.4250  1.1687
18872SOL    HW258058   7.629   5.758  12.030 -0.2307  0.1033 -1.0075
18873SOL     OW58059   1.822   7.855   0.918  0.1029 -0.6262 -0.6490
18873SOL    HW158060   1.905   7.894   0.891  0.1054  0.6759  1.0237
18873SOL    HW258061   1.768   7.857   0.839  1.0813  0.1360 -1.3293
18874SOL     OW58062   4.885   5.995   2.583  0.2660 -0.4436  0.2447
18874SOL    HW158063   4.979   6.011   2.581 -0.1031  2.1909 -0.0523
18874SOL    HW258064   4.854   6.043   2.660 -1.3061  2.7397 -2.0916
18875SOL     OW58065   5.645   7.603   1.943 -0.0053 -0.0017  0.1709
18875SOL    HW158066   5.639   7.610   2.039  0.7975  1.4878  0.1518
18875SOL    HW258067   5.703   7.529   1.928 -0.0265 -0.1642  0.8412
18876SOL     OW58068   4.807   4.853   2.882  0.4199  0.1628 -0.1559
18876SOL    HW158069   4.777   4.938   2.914 -1.0719 -0.6144  0.6767
18876SOL    HW258070   4.790   4.793   2.956  1.8166 -0.7896 -0.5670
18877SOL     OW58071   4.892   5.309  10.362 -0.3064 -0.1272 -0.0526
18877SOL    HW158072   4.938   5.346  10.287 -0.4077 -0.2543 -0.1773
18877SOL    HW258073   4.871   5.220  10.336 -1.0557  0.0798 -0.1835
18878SOL     OW58074   1.781   3.779   9.463 -0.0871  0.4674 -0.2743
18878SOL    HW158075   1.691   3.775   9.431 -0.7310 -0.4863  1.4766
18878SOL    HW258076   1.809   3.868   9.444 -1.8255  1.1521  0.1334
18879SOL     OW58077   4.247   5.890   4.298  0.2348  0.1411 -0.7570
18879SOL    HW158078   4.308   5.838   4.246 -0.4397  0.3098 -1.7310
18879SOL    HW258079   4.163   5.844   4.290 -0.1325  0.8060 -0.7770
18880SOL     OW58080   6.842   4.332   5.671  0.3644  0.5981 -0.6249
18880SOL    HW158081   6.847   4.342   5.576 -1.2734  1.6372 -0.6544
18880SOL    HW258082   6.787   4.405   5.699  2.2805  1.3936  1.3540
18881SOL     OW58083   4.568   0.601   2.716  0.1962  0.0744 -0.2286
18881SOL    HW158084   4.507   0.529   2.697 -0.4194  0.6091 -0.3141
18881SOL    HW258085   4.588   0.639   2.630  0.6535 -0.0981 -0.2007
18882SOL     OW58086   1.743   1.737   4.038  0.2101 -0.3663  0.2035
18882SOL    HW158087   1.710   1.810   3.986  0.2274 -0.5589 -0.0787
18882SOL    HW258088   1.769   1.777   4.121  0.9612  0.0847 -0.2287
18883SOL     OW58089   3.770   2.078   4.912  0.5058  0.1930 -0.6688
18883SOL    HW158090   3.839   2.016   4.935 -0.4421 -1.2999 -1.6953
18883SOL    HW258091   3.774   2.145   4.981 -0.3064 -2.4615  2.1343
18884SOL     OW58092   2.717   0.454   5.723  0.2421  0.3330  0.3529
18884SOL    HW158093   2.743   0.436   5.813 -0.9068 -1.6095  0.3383
18884SOL    HW258094   2.632   0.497   5.731 -1.8671 -3.3881  0.2499
18885SOL     OW58095   7.337   0.316  11.631  0.0794 -0.1052  0.1608
18885SOL    HW158096   7.324   0.252  11.561  0.6717  0.0897 -0.1315
18885SOL    HW258097   7.335   0.264  11.712 -1.4642 -0.2219  0.0766
18886SOL     OW58098   5.865   2.417   1.175  0.5825  0.5272  0.2770
18886SOL    HW158099   5.960   2.431   1.174  0.5904  0.6220 -1.6896
18886SOL    HW258100   5.830   2.488   1.121 -0.6088  0.3780  0.8204
18887SOL     OW58101   7.344   6.971   3.976  0.0924 -0.3308  0.1912
18887SOL    HW158102   7.361   7.013   3.892 -0.1208  0.1607  0.3918
18887SOL    HW258103   7.271   7.020   4.014  2.2235  1.6040  2.1327
18888SOL     OW58104   0.387   4.058   4.303 -0.2886  0.7872  0.1213
18888SOL    HW158105   0.373   4.092   4.215  2.7306  0.2783 -0.6723
18888SOL    HW258106   0.320   3.990   4.313  1.5330 -1.8384 -3.3769
18889SOL     OW58107   7.215   1.549   3.890  0.0307  0.0731 -0.1030
18889SOL    HW158108   7.285   1.567   3.952 -1.1850  1.6447  0.8815
18889SOL    HW258109   7.226   1.614   3.821  1.8708 -2.1713 -2.0922
18890SOL     OW58110   2.935   2.633   0.167 -0.0770  0.5084  0.1568
18890SOL    HW158111   2.960   2.664   0.080 -1.2717  0.3986 -0.2444
18890SOL    HW258112   2.922   2.539   0.156 -0.5659  0.5500  0.3726
18891SOL     OW58113   0.214   0.276   9.476 -0.3776 -0.0548 -0.0912
18891SOL    HW158114   0.179   0.204   9.528 -1.7940  1.0756  0.5832
18891SOL    HW258115   0.200   0.354   9.529  2.4085  0.6274 -0.1674
18892SOL     OW58116   4.467   2.622   7.365 -0.0953  0.0681 -0.1712
18892SOL    HW158117   4.398   2.557   7.372  0.6847 -0.9136 -1.3234
18892SOL    HW258118   4.524   2.606   7.441 -0.4626  0.0931  0.1113
18893SOL     OW58119   6.919   3.907   9.639 -0.4806  0.1359 -0.4222
18893SOL    HW158120   6.921   3.815   9.615  1.1222 -0.0174  0.1620
18893SOL    HW258121   6.958   3.953   9.564  1.4852 -0.0108  0.4391
18894SOL     OW58122   6.035   5.633   9.253 -0.1226 -0.3583  0.6507
18894SOL    HW158123   5.941   5.617   9.254 -0.4350  1.1315 -0.6006
18894SOL    HW258124   6.052   5.682   9.333 -0.6327  0.3428  0.3424
18895SOL     OW58125   2.662   3.739  11.456 -0.0758  0.2592 -0.1626
18895SOL    HW158126   2.689   3.769  11.368  2.8894 -1.3849  0.0603
18895SOL    HW258127   2.583   3.789  11.475  0.2085  2.0140 -3.0199
18896SOL     OW58128   3.246   0.160   8.547 -0.1983 -0.0824 -0.3792
18896SOL    HW158129   3.189   0.170   8.471  1.7470 -0.9908 -2.0469
18896SOL    HW258130   3.188   0.176   8.622 -2.5913 -0.7815 -1.9399
18897SOL     OW58131   6.907   3.230  10.456 -0.2545  0.0390 -0.5896
18897SOL    HW158132   6.912   3.326  10.458 -2.4402  0.1915 -0.7302
18897SOL    HW258133   6.829   3.208  10.506  0.0227 -1.6629 -0.8397
18898SOL     OW58134   6.461   4.265   2.668 -0.4172  0.0216  0.2192
18898SOL    HW158135   6.395   4.201   2.693 -0.9463  0.1396 -0.8303
18898SOL    HW258136   6.418   4.321   2.603  0.1118  1.2930  0.9114
18899SOL     OW58137   3.275   0.009   5.559 -0.3207  0.3113  0.0235
18899SOL    HW158138   3.264   0.098   5.526  0.6487  0.4912  0.1586
18899SOL    HW258139   3.329   0.019   5.637 -1.1360 -0.2879  0.6707
18900SOL     OW58140   1.485   4.606   9.697 -0.6535 -0.2427  0.1355
18900SOL    HW158141   1.509   4.523   9.738 -0.6510 -0.2735  0.0710
18900SOL    HW258142   1.499   4.671   9.766 -1.5336 -0.4001  0.4832
18901SOL     OW58143   2.332   4.034   6.485 -0.4361 -0.1609  0.1271
18901SOL    HW158144   2.269   3.972   6.448 -1.0162  0.8216 -0.5512
18901SOL    HW258145   2.405   3.979   6.514 -1.6178 -1.3422  1.0096
18902SOL     OW58146   7.816   1.381   9.755  0.1004 -0.1312 -0.0552
18902SOL    HW158147   7.790   1.404   9.666  0.2532 -0.7897 -0.2772
18902SOL    HW258148   7.895   1.432   9.771 -0.0476  0.1481 -0.2198
18903SOL     OW58149   4.391   7.818   2.981 -0.2340  0.2561  0.6299
18903SOL    HW158150   4.409   7.830   2.888  1.0954  1.0182  0.9641
18903SOL    HW258151   4.313   7.872   2.997  0.4513  1.3981  0.2535
18904SOL     OW58152   5.753   3.033   0.089  0.1979  0.4604 -0.4057
18904SOL    HW158153   5.818   3.042   0.158  0.6917  1.4240 -0.9628
18904SOL    HW258154   5.787   2.965   0.032  1.2426  1.6178 -1.2180
18905SOL     OW58155   6.874   6.887   8.364 -0.2877 -0.7682  0.5359
18905SOL    HW158156   6.865   6.830   8.441  2.1185  1.2178  2.4648
18905SOL    HW258157   6.888   6.975   8.401 -1.5195  0.7260 -2.2580
18906SOL     OW58158   2.008   3.435   3.147  0.1381 -0.2191  0.4877
18906SOL    HW158159   2.093   3.395   3.164  0.4959  0.7879  1.1070
18906SOL    HW258160   2.023   3.529   3.153 -1.0572 -0.0286  0.8330
18907SOL     OW58161   3.941   6.662   4.232 -0.3055 -0.3158 -0.0537
18907SOL    HW158162   3.904   6.650   4.144 -1.6933  0.8782  0.3086
18907SOL    HW258163   3.865   6.685   4.286  0.3542 -2.0764  1.7129
18908SOL     OW58164   1.780   1.613   8.523 -0.0016  0.1014  0.0945
18908SOL    HW158165   1.746   1.665   8.596 -0.5442  0.6398 -0.5264
18908SOL    HW258166   1.741   1.527   8.533  2.1285 -0.7388  2.0473
18909SOL     OW58167   4.445   6.591  10.916 -0.1918 -0.1073 -0.0526
18909SOL    HW158168   4.459   6.517  10.975  0.0244 -0.3269 -0.3721
18909SOL    HW258169   4.449   6.668  10.972 -0.7395 -0.3557  0.3327
18910SOL     OW58170   5.054   6.463   7.223 -0.1397  0.5920  0.1240
18910SOL    HW158171   5.026   6.374   7.203  1.4114 -0.0819  0.7857
18910SOL    HW258172   5.121   6.482   7.158 -0.8813  1.5287 -0.3929
18911SOL     OW58173   4.496   2.284   9.908  0.3691  0.1586  0.0314
18911SOL    HW158174   4.472   2.238   9.827  1.3333 -0.7765  0.2455
18911SOL    HW258175   4.504   2.215   9.973  0.4619  0.8030  0.7168
18912SOL     OW58176   0.426   7.053   4.404  0.1437  0.2988  0.3812
18912SOL    HW158177   0.498   7.087   4.457  0.5134  1.4891 -0.8285
18912SOL    HW258178   0.426   6.959   4.421  0.0551  0.6632  2.6848
18913SOL     OW58179   5.968   7.249   5.705  0.3708 -0.1351  0.0490
18913SOL    HW158180   6.047   7.196   5.697  0.8709  0.7980 -1.9827
18913SOL    HW258181   6.000   7.339   5.711 -0.5309  0.2183 -0.2338
18914SOL     OW58182   1.780   6.386   2.824  0.1738  0.3778  0.1496
18914SOL    HW158183   1.798   6.292   2.834 -0.1284 -0.0735 -2.6885
18914SOL    HW258184   1.836   6.413   2.752 -1.7670  1.7195 -0.9307
18915SOL     OW58185   0.413   5.903   7.595  0.4498 -0.4859 -0.3380
18915SOL    HW158186   0.400   5.945   7.510 -3.5877 -0.3569  0.1385
18915SOL    HW258187   0.435   5.812   7.575 -0.9074 -0.5691 -1.5589
18916SOL     OW58188   5.278   4.212   2.241  0.0825  0.1277  0.7138
18916SOL    HW158189   5.373   4.216   2.229 -0.1614  0.3423 -1.6599
18916SOL    HW258190   5.265   4.225   2.334  2.4572 -1.2349  1.3131
18917SOL     OW58191   0.255   4.114   0.689 -0.3622  0.1836  0.4787
18917SOL    HW158192   0.270   4.081   0.601 -0.1358  0.9850  0.2076
18917SOL    HW258193   0.325   4.075   0.742 -0.3942 -0.1595  0.2656
18918SOL     OW58194   3.188   0.820   3.805 -0.4036 -0.3854 -0.4473
18918SOL    HW158195   3.165   0.867   3.885  0.6622 -0.5901 -0.0049
18918SOL    HW258196   3.283   0.827   3.800 -0.4486 -0.4466 -1.6568
18919SOL     OW58197   0.792   2.994   6.300  0.3737  0.1420 -0.4396
18919SOL    HW158198   0.701   3.024   6.296  0.2911  0.0412  0.3922
18919SOL    HW258199   0.791   2.925   6.367  0.9816 -0.1747 -0.7481
18920SOL     OW58200   0.294   4.316   4.147 -0.3330 -0.0605  0.0417
18920SOL    HW158201   0.375   4.310   4.096 -0.5024 -1.0491 -0.1284
18920SOL    HW258202   0.269   4.408   4.141  1.6409  0.6355  1.4465
18921SOL     OW58203   6.130   0.616   5.008 -0.3665 -0.7798  0.9175
18921SOL    HW158204   6.205   0.563   4.985 -0.1861 -0.6766  1.2546
18921SOL    HW258205   6.167   0.697   5.043 -0.6095 -1.0706  1.9046
18922SOL     OW58206   2.760   6.845   2.795  0.0300 -0.6108  0.5030
18922SOL    HW158207   2.673   6.810   2.815 -1.4444  2.0875 -0.6861
18922SOL    HW258208   2.766   6.842   2.700  1.6530 -1.5839  0.6096
18923SOL     OW58209   0.919   6.300   5.493 -0.5064  0.1717  0.4720
18923SOL    HW158210   1.013   6.309   5.513 -0.2382 -1.3511  0.0480
18923SOL    HW258211   0.891   6.389   5.472  0.1541  1.1605  3.3928
18924SOL     OW58212   2.731   0.118   9.181 -0.1266  0.0957 -0.1815
18924SOL    HW158213   2.817   0.077   9.172 -0.0747 -0.2325  1.4748
18924SOL    HW258214   2.676   0.074   9.115  0.5270 -0.9731 -0.0416
18925SOL     OW58215   6.977   3.288   1.149 -0.3410  0.6966  0.1261
18925SOL    HW158216   6.905   3.328   1.101 -0.9184 -0.9688 -0.4798
18925SOL    HW258217   6.980   3.198   1.117  0.6331  0.1198  1.6984
18926SOL     OW58218   2.309   3.789   3.306  0.3475 -0.2818 -0.1237
18926SOL    HW158219   2.296   3.802   3.400  0.6557  0.5193 -0.1831
18926SOL    HW258220   2.220   3.785   3.270  0.2207 -1.3706  0.2935
18927SOL     OW58221   7.874   2.902   2.239 -0.3218  0.2104  0.7063
18927SOL    HW158222   7.925   2.829   2.273 -2.1154 -1.3483  0.2557
18927SOL    HW258223   7.892   2.974   2.299  0.4440 -1.0032  2.0063
18928SOL     OW58224   1.680   4.995  10.545  0.3537  0.3092  0.0241
18928SOL    HW158225   1.664   4.938  10.470  0.0647  2.0866 -1.3254
18928SOL    HW258226   1.775   4.996  10.554  0.3552 -0.5579  0.2373
18929SOL     OW58227   3.132   6.621   8.654  0.0482 -0.8297  0.2397
18929SOL    HW158228   3.122   6.600   8.561  0.9526  0.0188 -0.0605
18929SOL    HW258229   3.042   6.622   8.687 -0.2596 -1.5139 -0.5396
18930SOL     OW58230   0.278   0.777   9.878  0.1728  0.9390  0.2902
18930SOL    HW158231   0.352   0.738   9.924  0.8111 -0.9156 -2.1209
18930SOL    HW258232   0.201   0.732   9.913  0.6052 -0.1368 -0.1029
18931SOL     OW58233   6.439   0.917   6.650  0.2774 -0.3262 -0.2873
18931SOL    HW158234   6.452   0.901   6.556 -0.8422 -2.1434 -0.1534
18931SOL    HW258235   6.355   0.962   6.655 -0.4250 -1.6412 -0.0519
18932SOL     OW58236   4.194   3.795   5.221 -0.2770 -0.0397  0.3022
18932SOL    HW158237   4.243   3.842   5.289  1.8356 -0.4580 -0.8666
18932SOL    HW258238   4.243   3.713   5.209 -1.1606 -0.3871 -1.0742
18933SOL     OW58239   4.872   3.642   0.905  0.2063 -0.2549  0.4644
18933SOL    HW158240   4.888   3.678   0.992  0.2618 -0.0252  0.3590
18933SOL    HW258241   4.843   3.717   0.852  1.0528 -0.2038  0.0490
18934SOL     OW58242   0.516   1.720   4.515  0.5041 -0.0452  0.6594
18934SOL    HW158243   0.602   1.730   4.558  0.4732 -2.4629  1.3948
18934SOL    HW258244   0.525   1.642   4.461 -1.1854 -0.1924  0.5503
18935SOL     OW58245   2.023   6.568   3.503  0.1359 -0.4194 -0.2868
18935SOL    HW158246   1.964   6.643   3.508  0.0135 -0.4728 -0.9626
18935SOL    HW258247   1.970   6.497   3.468  1.0133 -0.0102 -2.6266
18936SOL     OW58248   1.160   1.608   7.709  0.2045  0.1173 -0.3782
18936SOL    HW158249   1.235   1.651   7.749 -0.9456  0.9015  1.0010
18936SOL    HW258250   1.086   1.667   7.724 -0.6402 -0.3909 -2.1189
18937SOL     OW58251   5.668   1.675  10.138  0.1052 -0.1450 -0.8417
18937SOL    HW158252   5.670   1.724  10.056 -2.1683 -0.1416 -0.9496
18937SOL    HW258253   5.733   1.605  10.125 -0.0443 -0.0124 -2.5411
18938SOL     OW58254   1.061   5.564   4.147  0.0146 -0.3435  0.2111
18938SOL    HW158255   1.046   5.593   4.056 -1.9438  1.7361  1.0908
18938SOL    HW258256   1.128   5.623   4.180 -0.0871 -0.3551  0.4386
18939SOL     OW58257   0.913   1.490   0.074  0.6463 -0.0303 -0.3648
18939SOL    HW158258   1.008   1.497   0.078  0.8114 -0.2890 -2.4700
18939SOL    HW258259   0.896   1.430   0.001 -1.1317 -0.4904  0.3517
18940SOL     OW58260   2.889   6.866   0.644  0.5723 -0.4352  0.1151
18940SOL    HW158261   2.912   6.900   0.731 -0.3057  2.8207 -0.7736
18940SOL    HW258262   2.828   6.795   0.661  1.7489 -1.0391  2.1677
18941SOL     OW58263   0.656   0.863   2.344 -0.3236  0.1763 -0.0348
18941SOL    HW158264   0.728   0.925   2.334  0.8244 -0.8682  1.3169
18941SOL    HW258265   0.618   0.883   2.430  0.4293 -1.2989  0.6842
18942SOL     OW58266   5.463   4.761   3.911  0.1942  0.3918 -0.3997
18942SOL    HW158267   5.480   4.819   3.837 -0.5652  1.5098  0.2721
18942SOL    HW258268   5.476   4.673   3.876  2.9895  0.9696 -1.0399
18943SOL     OW58269   5.594   0.330  10.650 -0.2023  0.3000 -0.5911
18943SOL    HW158270   5.594   0.418  10.612 -2.2428  1.3003  1.4529
18943SOL    HW258271   5.502   0.312  10.669  0.3716 -1.4475  0.8356
18944SOL     OW58272   6.891   6.787   1.949 -0.2520  0.8132 -0.0458
18944SOL    HW158273   6.829   6.782   2.021 -0.3001 -0.7467 -0.1668
18944SOL    HW258274   6.890   6.700   1.910  2.2004  0.6412  0.1207
18945SOL     OW58275   2.882   2.208   6.159  0.2148 -0.1893 -0.5683
18945SOL    HW158276   2.971   2.206   6.195 -0.8939 -4.0605  2.5962
18945SOL    HW258277   2.848   2.293   6.186  1.8620 -0.0392  1.2566
18946SOL     OW58278   2.089   6.559   4.284 -0.1833 -0.0652  0.1586
18946SOL    HW158279   2.012   6.513   4.250  1.2347 -1.0664 -1.9023
18946SOL    HW258280   2.119   6.614   4.212  1.3101 -0.0674  0.7279
18947SOL     OW58281   2.075   5.182  11.176 -0.4075  0.2048  0.3667
18947SOL    HW158282   2.013   5.141  11.117 -1.4606  0.9279  0.9358
18947SOL    HW258283   2.146   5.213  11.120 -1.9320  1.9210 -0.7328
18948SOL     OW58284   3.193   2.332   5.573  0.1531  0.5419 -0.0630
18948SOL    HW158285   3.256   2.275   5.618  0.9534  2.0161  0.7890
18948SOL    HW258286   3.204   2.311   5.480  1.4138  0.2667  0.1222
18949SOL     OW58287   5.711   0.530   7.346  0.1321  0.0978  0.2113
18949SOL    HW158288   5.654   0.502   7.417  1.3297 -1.3449  0.6531
18949SOL    HW258289   5.798   0.533   7.384  0.3893  2.4848 -0.3879
18950SOL     OW58290   0.435   7.189  12.095 -0.6921  0.1514 -0.5176
18950SOL    HW158291   0.525   7.188  12.063 -0.6398  0.1816 -0.3740
18950SOL    HW258292   0.442   7.156  12.185 -0.7578  0.6185 -0.3378
18951SOL     OW58293   7.741   6.291   0.865 -0.0762  0.4620  0.4992
18951SOL    HW158294   7.755   6.326   0.777 -0.9671  0.3822  0.3180
18951SOL    HW258295   7.827   6.294   0.906  0.4212  0.2020 -0.4872
18952SOL     OW58296   4.424   4.405   6.280 -0.5020 -0.2731 -0.3074
18952SOL    HW158297   4.483   4.468   6.320 -2.3557  1.6137 -0.3573
18952SOL    HW258298   4.479   4.354   6.221  1.4110  0.0008  1.1386
18953SOL     OW58299   7.548   5.326   5.577  0.4478  0.1052  0.5853
18953SOL    HW158300   7.619   5.370   5.625  2.0078  1.1151 -2.3615
18953SOL    HW258301   7.565   5.232   5.590  1.6237  0.3420  0.8854
18954SOL     OW58302   2.953   2.863   3.339 -0.2598 -0.6175 -0.1474
18954SOL    HW158303   2.955   2.958   3.352 -0.0927 -0.7184  0.6677
18954SOL    HW258304   2.860   2.842   3.331 -0.2280 -0.2277 -1.7155
18955SOL     OW58305   6.030   5.336   5.472  0.1993  0.4375 -0.0070
18955SOL    HW158306   6.087   5.354   5.397  0.8963 -1.0009  0.1290
18955SOL    HW258307   6.090   5.331   5.546 -0.5485  2.4117  0.7803
18956SOL     OW58308   3.821   2.675   7.843 -0.6321 -0.1194 -0.2158
18956SOL    HW158309   3.824   2.687   7.938  0.6681 -2.4837  0.1057
18956SOL    HW258310   3.733   2.640   7.826 -1.1060  0.9312  0.0048
18957SOL     OW58311   4.263   1.587   8.564 -0.1345 -0.6507  0.0189
18957SOL    HW158312   4.343   1.558   8.520 -0.4086  0.1467 -1.0661
18957SOL    HW258313   4.215   1.506   8.583  0.8617 -1.1305  0.5850
18958SOL     OW58314   3.467   0.334   4.761 -0.0939  0.7213  0.2417
18958SOL    HW158315   3.512   0.275   4.821  0.8957  1.8631  0.6636
18958SOL    HW258316   3.514   0.325   4.678  1.5278  2.5081  0.8921
18959SOL     OW58317   2.122   6.447   2.454  0.1492  0.2050  0.0916
18959SOL    HW158318   2.217   6.440   2.440  0.2523  2.0176 -0.3695
18959SOL    HW258319   2.087   6.365   2.421  1.7087 -1.3395  2.0045
18960SOL     OW58320   2.755   1.698   3.992  0.5263 -0.0897  0.0941
18960SOL    HW158321   2.701   1.740   4.059  1.0900 -0.5958  0.8852
18960SOL    HW258322   2.713   1.614   3.976  0.7954 -0.2732  0.3449
18961SOL     OW58323   3.990   6.215   8.441  0.4325  0.4259  0.2109
18961SOL    HW158324   4.016   6.270   8.368 -1.2600 -0.4400 -1.1286
18961SOL    HW258325   3.947   6.140   8.400 -0.5822 -0.0896  2.1011
18962SOL     OW58326   5.591   5.993   6.237 -0.5195  0.1282 -0.0499
18962SOL    HW158327   5.567   6.050   6.310  0.1316 -0.0648  0.3273
18962SOL    HW258328   5.651   6.045   6.184  0.3906 -0.3180  0.5082
18963SOL     OW58329   1.737   2.527  12.318  0.2225 -0.1390  0.0450
18963SOL    HW158330   1.751   2.433  12.309 -1.9207 -0.3791 -1.5612
18963SOL    HW258331   1.826   2.564  12.320  1.1139 -2.1720  1.1147
18964SOL     OW58332   0.042   0.121   7.176  0.2023  0.0828  0.4428
18964SOL    HW158333  -0.027   0.157   7.120  0.3504  0.0829  0.2606
18964SOL    HW258334   0.025   0.027   7.178 -1.2151  0.3315  2.3015
18965SOL     OW58335   2.695   6.047   4.544 -0.5532 -0.9444  0.2267
18965SOL    HW158336   2.785   6.075   4.563 -1.0465 -1.0364  3.2817
18965SOL    HW258337   2.675   6.085   4.459  1.9025  0.2414  0.0920
18966SOL     OW58338   7.158   4.300   9.633 -0.0550 -0.3821  0.5634
18966SOL    HW158339   7.249   4.324   9.653 -0.2504  0.7816  0.1595
18966SOL    HW258340   7.146   4.214   9.674  0.4698  0.5268  2.8266
18967SOL     OW58341   5.174   7.409   5.200  0.4678 -0.3854  0.5549
18967SOL    HW158342   5.250   7.460   5.170  1.3338 -1.6248  0.5979
18967SOL    HW258343   5.206   7.320   5.209 -1.0559 -0.9861  0.3827
18968SOL     OW58344   0.446   2.571   0.046  0.3037  0.4951  0.0578
18968SOL    HW158345   0.351   2.562   0.041  0.3171  0.4905 -0.2117
18968SOL    HW258346   0.477   2.482   0.064  0.2573  0.4963  0.1449
18969SOL     OW58347   6.253   6.939   8.779 -0.1773 -0.4114 -0.3946
18969SOL    HW158348   6.265   6.845   8.764  0.7590 -0.5425  0.9987
18969SOL    HW258349   6.273   6.979   8.694  2.3670 -1.2751 -0.2885
18970SOL     OW58350   5.913   7.119   0.412 -0.3338 -0.2441 -0.0961
18970SOL    HW158351   6.007   7.099   0.405  0.4196  2.4901  0.8001
18970SOL    HW258352   5.872   7.036   0.436  2.1927 -1.0338  1.9174
18971SOL     OW58353   4.672   7.016   0.307 -0.2119  0.0174 -0.5660
18971SOL    HW158354   4.764   7.017   0.283  0.3156 -0.0431  1.3287
18971SOL    HW258355   4.632   6.953   0.246  1.4682 -1.8459  0.1562
18972SOL     OW58356   0.129   5.031   3.816  0.3197  0.3136 -0.1112
18972SOL    HW158357   0.046   4.983   3.816  0.7913 -0.5482 -1.1268
18972SOL    HW258358   0.109   5.116   3.776 -0.2684  0.4874  0.5458
18973SOL     OW58359   5.584   5.568  12.026  0.1984  0.0641 -0.0148
18973SOL    HW158360   5.515   5.511  12.062  0.6734  0.1894  1.1558
18973SOL    HW258361   5.611   5.524  11.946  0.7431 -1.5450  0.9872
18974SOL     OW58362   5.677   1.260   1.139  0.0414  0.0676  0.0572
18974SOL    HW158363   5.685   1.232   1.047 -1.0644  0.2263 -0.1025
18974SOL    HW258364   5.649   1.181   1.185  2.3020 -0.4695  0.5873
18975SOL     OW58365   4.972   2.506   2.297  0.1503 -0.5455 -0.2706
18975SOL    HW158366   4.941   2.544   2.380 -1.6298 -0.8515 -0.7548
18975SOL    HW258367   4.984   2.413   2.317 -3.0070 -1.2296 -0.9499
18976SOL     OW58368   6.233   7.896   3.215 -0.0550  0.1142 -0.2253
18976SOL    HW158369   6.207   7.963   3.152  0.6443  0.8290  0.2231
18976SOL    HW258370   6.301   7.846   3.170  1.7217  1.7323  0.5402
18977SOL     OW58371   6.352   6.915  12.237 -0.3074  0.3684  0.1506
18977SOL    HW158372   6.362   6.966  12.156 -1.1681 -1.8299 -1.4293
18977SOL    HW258373   6.297   6.841  12.212 -0.5171 -0.4470  2.7611
18978SOL     OW58374   5.604   2.257   2.228 -0.3532 -0.0619  0.0908
18978SOL    HW158375   5.549   2.179   2.235 -0.4801  0.0889  0.9071
18978SOL    HW258376   5.543   2.330   2.242  0.0624  0.1023  1.0937
18979SOL     OW58377   1.668   3.118   1.509  0.1004 -0.6114  0.2436
18979SOL    HW158378   1.691   3.100   1.599 -0.2545  2.4783  1.0866
18979SOL    HW258379   1.575   3.096   1.503 -0.5148  1.3432  1.4318
18980SOL     OW58380   1.470   0.104   9.066 -0.8285  0.4943 -0.3585
18980SOL    HW158381   1.431   0.082   9.150 -2.1749  0.1098 -1.0497
18980SOL    HW258382   1.538   0.038   9.053 -1.7098 -0.4475 -0.2978
18981SOL     OW58383   2.556   2.910   2.375 -0.6282 -0.2819  0.6105
18981SOL    HW158384   2.481   2.957   2.410 -0.0744  1.7923 -0.7403
18981SOL    HW258385   2.629   2.972   2.383 -0.5302  0.6855 -4.3636
18982SOL     OW58386   2.537   3.075   4.815  0.4254 -0.0530  0.4131
18982SOL    HW158387   2.605   3.114   4.760  1.7541 -0.9576  1.3346
18982SOL    HW258388   2.470   3.045   4.754  1.0411  0.5199 -0.5564
18983SOL     OW58389   3.863   1.635  11.546 -0.3775  0.6607  0.3555
18983SOL    HW158390   3.913   1.605  11.622 -0.5207 -0.3984  0.0532
18983SOL    HW258391   3.929   1.667  11.485 -0.2227  1.0532  0.7244
18984SOL     OW58392   4.212   2.653   2.203 -0.4433 -0.4704 -0.2263
18984SOL    HW158393   4.255   2.599   2.136  0.1041 -0.4793  0.1274
18984SOL    HW258394   4.171   2.590   2.262  0.7141 -0.5274  0.5313
18985SOL     OW58395   6.801   3.759   7.538 -0.1092  0.1814  0.2627
18985SOL    HW158396   6.729   3.808   7.498  0.4753  0.0657 -1.0094
18985SOL    HW258397   6.876   3.818   7.532 -0.2505  0.6673  2.4158
18986SOL     OW58398   4.782   1.385  11.676  0.3282  0.0249  0.3898
18986SOL    HW158399   4.774   1.296  11.643  0.6647 -0.0729  0.5668
18986SOL    HW258400   4.845   1.428  11.618  1.6014 -0.4109  1.4183
18987SOL     OW58401   1.079   4.554  10.147  0.5041  0.5195 -0.4196
18987SOL    HW158402   1.155   4.533  10.091 -0.2588  0.7832 -1.5856
18987SOL    HW258403   1.006   4.508  10.106 -0.1581  1.0545  0.1396
18988SOL     OW58404   1.816   2.649  11.548  0.2603 -0.0202  0.8809
18988SOL    HW158405   1.787   2.561  11.572 -1.6432  0.4914  0.5974
18988SOL    HW258406   1.836   2.691  11.631 -1.6654  0.1864  1.2930
18989SOL     OW58407   0.093   4.347   0.517  0.5697 -0.2787 -0.3260
18989SOL    HW158408   0.000   4.345   0.541  0.4789  1.7336 -0.3180
18989SOL    HW258409   0.094   4.325   0.424  0.0591 -0.1952 -0.3549
18990SOL     OW58410   4.947   3.256   6.505  0.0503  0.3293 -0.2558
18990SOL    HW158411   5.005   3.271   6.431 -0.7906 -0.5312 -1.1187
18990SOL    HW258412   4.931   3.343   6.541 -0.1481  0.8606 -1.5781
18991SOL     OW58413   0.743   3.500   8.560  0.4474 -0.3353  0.0525
18991SOL    HW158414   0.790   3.582   8.578 -3.2124  2.0454 -0.0365
18991SOL    HW258415   0.679   3.494   8.631 -0.9647 -1.7843 -1.2786
18992SOL     OW58416   1.327   0.739   6.925 -0.2709 -0.2513 -0.2094
18992SOL    HW158417   1.360   0.686   6.852 -0.9556 -0.3180 -0.4795
18992SOL    HW258418   1.236   0.758   6.901 -0.1438  0.7366  0.0611
18993SOL     OW58419   7.710   6.407  12.074 -0.1267 -0.6237  0.0066
18993SOL    HW158420   7.745   6.488  12.112  0.0622 -0.5892 -0.2314
18993SOL    HW258421   7.764   6.393  11.996 -0.5421 -0.6617 -0.2762
18994SOL     OW58422   5.664   6.241   9.735  0.4932  0.0635 -0.3939
18994SOL    HW158423   5.584   6.187   9.732  1.7444 -1.9901  0.5281
18994SOL    HW258424   5.673   6.264   9.828  0.2292  1.5167 -0.7161
18995SOL     OW58425   0.559   1.942   6.770  0.6504 -0.2331 -0.2815
18995SOL    HW158426   0.572   1.847   6.764 -1.8818 -0.8236  1.7602
18995SOL    HW258427   0.558   1.972   6.679 -2.8034 -2.9409 -1.3538
18996SOL     OW58428   1.520   3.195   4.314 -0.4149 -0.3746  0.5724
18996SOL    HW158429   1.443   3.167   4.362 -0.4148  0.5869  1.1659
18996SOL    HW258430   1.584   3.125   4.327 -0.6577 -0.4499  1.4041
18997SOL     OW58431   5.870   2.126  10.628 -0.2069 -0.2488 -0.7526
18997SOL    HW158432   5.914   2.073  10.562  2.9005 -0.5373  1.3863
18997SOL    HW258433   5.905   2.214  10.616 -0.2667 -0.1197 -0.0134
18998SOL     OW58434   0.838   6.068   2.220  0.3178 -0.1345 -0.1718
18998SOL    HW158435   0.875   6.035   2.137  2.8388  0.2615  0.7055
18998SOL    HW258436   0.856   6.162   2.218  1.0886 -0.2361  1.1212
18999SOL     OW58437   3.373   0.370   5.833 -0.0606  0.3587 -0.2178
18999SOL    HW158438   3.374   0.465   5.822 -0.6915  0.5492  1.1123
18999SOL    HW258439   3.450   0.352   5.886 -0.1820  0.1890 -0.0992
19000SOL     OW58440   6.434   3.890   3.150  0.0113 -0.3353  0.0000
19000SOL    HW158441   6.466   3.970   3.110 -0.1742  0.5743  1.5949
19000SOL    HW258442   6.508   3.858   3.202 -0.9422  0.7347  2.1524
19001SOL     OW58443   7.366   3.895   0.252 -0.9901  0.0231 -0.1291
19001SOL    HW158444   7.384   3.824   0.313 -0.6371 -0.6562 -1.0025
19001SOL    HW258445   7.273   3.913   0.262 -1.0606 -0.4930  0.1629
19002SOL     OW58446   4.490   3.716  10.568 -0.3424  0.4264  0.2765
19002SOL    HW158447   4.478   3.673  10.653  1.1286  0.1564  0.3669
19002SOL    HW258448   4.579   3.752  10.571 -1.0409  2.3352 -0.3236
19003SOL     OW58449   0.720   2.947  10.749  0.5538  0.1244 -0.2979
19003SOL    HW158450   0.693   2.864  10.789 -0.5314  0.1990 -0.8457
19003SOL    HW258451   0.806   2.929  10.712  0.4820 -0.6553 -0.1062
19004SOL     OW58452   0.317   2.980   8.815 -0.3260  0.5405 -0.2510
19004SOL    HW158453   0.357   2.937   8.740 -1.1708  1.5518 -1.3151
19004SOL    HW258454   0.281   2.909   8.867  0.6314 -0.2054 -0.5640
19005SOL     OW58455   5.665   5.515  10.887  0.0734  0.4082 -0.4920
19005SOL    HW158456   5.677   5.604  10.854 -0.4780  0.5327 -0.3799
19005SOL    HW258457   5.697   5.459  10.816 -0.1858  0.6892 -0.8390
19006SOL     OW58458   7.382   2.878  12.143 -0.2617  0.9637 -0.3759
19006SOL    HW158459   7.293   2.845  12.127 -1.0194  2.3665  0.7143
19006SOL    HW258460   7.418   2.892  12.055 -0.7902 -0.3847 -0.8443
19007SOL     OW58461   6.216   6.135  11.253  0.7857 -0.0016 -0.4958
19007SOL    HW158462   6.267   6.121  11.333  0.4926 -0.9289 -0.4541
19007SOL    HW258463   6.216   6.050  11.209  0.7815  0.4511 -1.3930
19008SOL     OW58464   3.443   6.107   0.022  0.0137  1.1912  0.3310
19008SOL    HW158465   3.495   6.027   0.024  0.1658  1.2965  1.3305
19008SOL    HW258466   3.462   6.150   0.105 -0.0967  2.2508 -0.1746
19009SOL     OW58467   5.089   2.785   8.096  0.4053  0.8862 -0.0846
19009SOL    HW158468   5.161   2.723   8.088 -1.5903 -1.3799 -2.6426
19009SOL    HW258469   5.052   2.768   8.183  1.2758  0.1000  0.1444
19010SOL     OW58470   1.889   0.310   9.379 -0.2621 -0.0365 -0.1806
19010SOL    HW158471   1.878   0.312   9.474 -1.0476 -1.1414 -0.2415
19010SOL    HW258472   1.967   0.364   9.364 -0.4162  0.5725  1.0365
19011SOL     OW58473   7.308   6.314  10.420  0.0939 -0.2329  0.1620
19011SOL    HW158474   7.234   6.286  10.366 -2.6118 -2.4443  4.4324
19011SOL    HW258475   7.367   6.238  10.421 -1.2085 -1.3103  2.1885
19012SOL     OW58476   4.855   1.035   9.647  0.3200  0.0233  0.3527
19012SOL    HW158477   4.797   1.109   9.664 -0.3277 -0.5508  0.6763
19012SOL    HW258478   4.822   0.997   9.566 -0.2274 -0.7411  0.9195
19013SOL     OW58479   6.142   5.457   2.938 -0.4447  0.4460  0.7819
19013SOL    HW158480   6.064   5.460   2.994 -0.8724  0.8818  0.1744
19013SOL    HW258481   6.126   5.385   2.878 -0.2971  0.4152  0.7805
19014SOL     OW58482   2.314   2.827   2.671  0.2918  0.2818 -0.2119
19014SOL    HW158483   2.277   2.914   2.658  1.2634  0.5927 -1.0467
19014SOL    HW258484   2.351   2.829   2.759 -1.1887  0.1326  0.4362
19015SOL     OW58485   4.491   6.841  11.291  0.1697 -0.3072  0.2732
19015SOL    HW158486   4.577   6.813  11.320 -0.0042 -2.0306 -0.7465
19015SOL    HW258487   4.483   6.807  11.202 -1.4364  0.0945  0.2256
19016SOL     OW58488   6.188   4.338  11.831 -0.1041  0.3609  0.4426
19016SOL    HW158489   6.101   4.316  11.798 -0.5125 -0.8469  2.1587
19016SOL    HW258490   6.233   4.379  11.757 -1.1773 -1.4994 -1.3534
19017SOL     OW58491   4.875   6.248   7.159  0.5844 -0.3369  0.1536
19017SOL    HW158492   4.841   6.325   7.113  2.4610 -0.0249 -0.7926
19017SOL    HW258493   4.813   6.178   7.136  0.3640  0.2765 -1.2347
19018SOL     OW58494   7.476   6.643  12.089  0.4583  0.0586 -0.1826
19018SOL    HW158495   7.513   6.707  12.028 -0.6070  0.5576 -0.3132
19018SOL    HW258496   7.524   6.657  12.171  1.2659 -0.0065 -0.6276
19019SOL     OW58497   4.663   6.353   5.653 -0.2819 -0.6772  0.2371
19019SOL    HW158498   4.574   6.350   5.617  0.1820  1.3049 -1.2576
19019SOL    HW258499   4.720   6.357   5.577  0.8959  1.2497  1.1221
19020SOL     OW58500   7.163   7.700   1.956 -0.2565 -0.5902  0.1343
19020SOL    HW158501   7.236   7.652   1.997  0.4441  0.2100 -0.1383
19020SOL    HW258502   7.169   7.676   1.863  2.1183  2.3407 -0.6613
19021SOL     OW58503   3.170   5.596   9.321 -0.1107 -0.2987  0.1438
19021SOL    HW158504   3.258   5.626   9.299 -0.1826  0.6549  1.1241
19021SOL    HW258505   3.182   5.504   9.345  0.6640 -0.1023  0.5352
19022SOL     OW58506   5.903   7.729   3.193  0.1594  0.1499  0.0678
19022SOL    HW158507   5.837   7.726   3.261  1.8640  1.3315  1.9011
19022SOL    HW258508   5.855   7.714   3.112 -1.8649 -1.8981  1.5307
19023SOL     OW58509   1.497   0.225   1.940  0.1690  0.3400  0.5383
19023SOL    HW158510   1.411   0.192   1.966  1.3984 -3.3597  0.4908
19023SOL    HW258511   1.558   0.186   2.002  2.3568 -2.1874 -2.8206
19024SOL     OW58512   3.805   4.230  11.726  0.0568 -0.0952 -0.0305
19024SOL    HW158513   3.878   4.203  11.780  0.3828 -2.0353 -1.3657
19024SOL    HW258514   3.836   4.221  11.636 -1.0177  1.4426 -0.6032
19025SOL     OW58515   4.838   1.309   5.163  0.5026 -0.1794 -0.6110
19025SOL    HW158516   4.856   1.389   5.212  1.7626 -0.4823 -0.5629
19025SOL    HW258517   4.776   1.337   5.095 -1.5954  0.1790  1.3123
19026SOL     OW58518   1.807   4.707   6.150  0.5976 -0.2615 -0.2385
19026SOL    HW158519   1.736   4.770   6.139  0.4178 -0.2449  0.8745
19026SOL    HW258520   1.793   4.642   6.080 -1.1950 -0.8751  0.6230
19027SOL     OW58521   4.936   3.451   5.317  0.1306  0.2889 -0.4505
19027SOL    HW158522   4.968   3.537   5.290  0.8975  0.0929 -0.1992
19027SOL    HW258523   4.890   3.417   5.241 -0.1152  0.8889 -0.5733
19028SOL     OW58524   2.210   6.676   9.946  0.3000 -0.1307 -0.2047
19028SOL    HW158525   2.222   6.771   9.938 -0.9822  0.0256 -0.5333
19028SOL    HW258526   2.228   6.657  10.038  1.5053  0.2695 -0.3442
19029SOL     OW58527   7.409   0.254  12.069  0.8091 -0.3969  0.0377
19029SOL    HW158528   7.316   0.271  12.076  0.9054 -0.3697  1.8913
19029SOL    HW258529   7.445   0.328  12.021 -0.0170  0.0007  0.0355
19030SOL     OW58530   7.102   0.535   4.304 -0.4021 -0.2764 -0.1530
19030SOL    HW158531   7.135   0.451   4.338  2.7391  1.2752  0.9912
19030SOL    HW258532   7.160   0.557   4.232 -0.1046  1.6711  0.6215
19031SOL     OW58533   4.951   7.635  11.915  0.1977  0.1500  0.0594
19031SOL    HW158534   4.900   7.631  11.834  0.7587  0.9384 -0.3387
19031SOL    HW258535   4.892   7.599  11.982 -0.0315 -1.1272 -0.7987
19032SOL     OW58536   6.705   5.676   8.674 -0.2914  0.0089 -0.0619
19032SOL    HW158537   6.691   5.703   8.584 -1.0336  1.0993  0.3633
19032SOL    HW258538   6.676   5.750   8.727 -0.2021 -0.7415  1.0886
19033SOL     OW58539   6.638   5.928   9.102 -0.0278  0.1516 -0.4370
19033SOL    HW158540   6.580   5.996   9.070 -0.7709 -0.3458 -0.1813
19033SOL    HW258541   6.579   5.857   9.130  0.7430 -1.0250 -1.6736
19034SOL     OW58542   4.077   2.830   1.317  0.3488 -0.2282  0.0241
19034SOL    HW158543   4.068   2.878   1.399 -1.7407 -2.6745  1.3807
19034SOL    HW258544   4.022   2.877   1.255  1.6839  1.4532  0.0309
19035SOL     OW58545   1.518   4.359   0.621 -0.2324  0.4120 -0.2117
19035SOL    HW158546   1.458   4.373   0.695  1.5271 -1.6120  1.7613
19035SOL    HW258547   1.569   4.282   0.647  0.3803 -0.5124 -3.6623
19036SOL     OW58548   0.641   6.515   8.185 -0.0843  0.2529 -0.8747
19036SOL    HW158549   0.732   6.510   8.215  0.0610  1.9589 -0.9416
19036SOL    HW258550   0.610   6.424   8.187  0.3989 -0.0167  2.9890
19037SOL     OW58551   1.331   2.567   6.056 -0.6226 -0.1134 -0.4534
19037SOL    HW158552   1.419   2.594   6.028 -0.2030  0.6247  1.4320
19037SOL    HW258553   1.295   2.645   6.099 -2.1427 -0.4707 -1.0183
19038SOL     OW58554   1.451   1.566   3.271  0.2838 -0.2055  0.1630
19038SOL    HW158555   1.410   1.609   3.346  0.6349  0.0712  0.1963
19038SOL    HW258556   1.390   1.495   3.249 -0.6935  0.7713 -0.3890
19039SOL     OW58557   2.375   2.532   6.530 -0.7721  0.6106  0.4743
19039SOL    HW158558   2.337   2.590   6.464 -1.5382  0.0663  0.4198
19039SOL    HW258559   2.301   2.479   6.560 -0.1656 -0.0680  0.7980
19040SOL     OW58560   1.126   5.774   1.689  0.3792  0.7027  0.3030
19040SOL    HW158561   1.144   5.680   1.685  0.3610  0.6774  0.7820
19040SOL    HW258562   1.064   5.790   1.618 -0.9587  0.0474  1.2857
19041SOL     OW58563   6.348   7.264   6.334 -0.1262 -0.2034  0.6021
19041SOL    HW158564   6.391   7.332   6.281 -0.6128 -0.2662  0.1134
19041SOL    HW258565   6.349   7.186   6.278  2.3994 -1.2636  1.9776
19042SOL     OW58566   1.000   6.351  10.545  0.4330  0.2994 -0.7058
19042SOL    HW158567   0.915   6.337  10.503  0.4126  0.3997 -0.6984
19042SOL    HW258568   1.063   6.345  10.473  0.5177 -0.8343 -0.5511
19043SOL     OW58569   0.833   0.231   7.761  0.2720  0.0941  0.0940
19043SOL    HW158570   0.777   0.158   7.733  1.5347 -1.2768  0.9579
19043SOL    HW258571   0.774   0.291   7.807 -0.5095 -1.3383  1.0413
19044SOL     OW58572   2.324   6.277  10.220 -0.2283 -0.5961  0.8436
19044SOL    HW158573   2.317   6.182  10.215  1.5621 -0.7305  0.2613
19044SOL    HW258574   2.252   6.309  10.165 -0.4075 -1.6170  0.4575
19045SOL     OW58575   3.778   7.332   6.003  0.1106 -0.6140  0.8140
19045SOL    HW158576   3.742   7.256   5.959 -0.2804 -0.0147  0.0817
19045SOL    HW258577   3.715   7.352   6.073 -1.1491  0.5706 -0.6027
19046SOL     OW58578   2.753   0.453   5.451 -0.7792  0.1513  0.0033
19046SOL    HW158579   2.805   0.373   5.449 -1.0271 -0.0160  0.2174
19046SOL    HW258580   2.753   0.479   5.544 -0.6340  0.4414 -0.0764
19047SOL     OW58581   4.557   5.607   9.566  0.0961  0.3340  0.2588
19047SOL    HW158582   4.469   5.628   9.598  0.2983  0.4457  0.7402
19047SOL    HW258583   4.613   5.611   9.643  0.3770 -0.6218  0.1194
19048SOL     OW58584   0.041   2.039   4.224 -0.0223  0.1393 -0.6209
19048SOL    HW158585  -0.010   1.981   4.280 -0.3407  0.0887 -0.9625
19048SOL    HW258586   0.123   1.992   4.210  0.1519  0.2545 -0.0136
19049SOL     OW58587   1.468   6.163   0.129 -0.0389 -0.1306 -0.6919
19049SOL    HW158588   1.560   6.138   0.121  0.8274  2.2128  0.6984
19049SOL    HW258589   1.463   6.204   0.215 -2.2421  0.4245 -1.0404
19050SOL     OW58590   2.910   4.700   0.595 -0.3491  0.0143  0.0684
19050SOL    HW158591   2.884   4.622   0.546  1.4561  1.2221 -3.1641
19050SOL    HW258592   2.833   4.758   0.591 -0.8871 -0.6707  0.4053
19051SOL     OW58593   5.176   1.593   6.908 -0.2433 -0.2057  0.0342
19051SOL    HW158594   5.172   1.513   6.961 -2.2608 -0.9924 -1.1585
19051SOL    HW258595   5.175   1.664   6.971  1.0520 -1.0969  1.1118
19052SOL     OW58596   2.973   1.609   0.697  0.0143  0.3027  1.0243
19052SOL    HW158597   2.975   1.551   0.773  2.0470 -1.9367 -0.5781
19052SOL    HW258598   2.890   1.589   0.653 -0.3054  0.2324  1.6537
19053SOL     OW58599   5.842   7.476  10.647 -0.1302 -0.1306  0.3954
19053SOL    HW158600   5.804   7.557  10.682 -1.0884  0.7067 -2.3007
19053SOL    HW258601   5.791   7.458  10.567  0.9650 -2.6455  0.1580
19054SOL     OW58602   0.946   1.264  10.450  0.7255 -0.0988  0.4892
19054SOL    HW158603   0.986   1.184  10.414  1.0331 -0.2736  1.2132
19054SOL    HW258604   0.987   1.275  10.536  0.4796  0.6880  0.5099
19055SOL     OW58605   1.492   7.313   0.450 -0.5820 -0.0940 -0.3575
19055SOL    HW158606   1.464   7.232   0.408  0.6054 -0.2240 -0.9484
19055SOL    HW258607   1.583   7.323   0.423  0.2920 -0.2310  2.2957
19056SOL     OW58608   7.776   1.139   0.658 -0.4080  0.3495  0.2787
19056SOL    HW158609   7.744   1.212   0.605  0.3833  0.6942  0.2644
19056SOL    HW258610   7.745   1.061   0.611 -1.3868  0.6633  0.3779
19057SOL     OW58611   2.918   5.199  11.132  0.0809 -0.9661 -0.0939
19057SOL    HW158612   2.999   5.172  11.090  0.6788  2.0164 -1.0956
19057SOL    HW258613   2.851   5.190  11.064  0.8157  2.5846 -1.4943
19058SOL     OW58614   2.135   2.591   2.820 -0.2351 -0.0335 -0.2301
19058SOL    HW158615   2.185   2.596   2.901 -2.7727  0.2793  1.4108
19058SOL    HW258616   2.094   2.504   2.822 -2.3555  0.9130  0.1784
19059SOL     OW58617   6.163   1.994   7.032  0.3844 -0.1980  0.6031
19059SOL    HW158618   6.219   1.960   6.962  2.0926 -0.4565  2.0014
19059SOL    HW258619   6.211   1.973   7.112 -1.0283  0.9607  1.8024
19060SOL     OW58620   0.844   5.182   9.608 -1.1118  0.1507  0.5517
19060SOL    HW158621   0.878   5.195   9.696  1.2075 -1.3192 -0.0368
19060SOL    HW258622   0.832   5.270   9.574 -0.2425  0.7399  1.6994
19061SOL     OW58623   3.212   4.957   4.908  0.0571  0.1550 -0.1050
19061SOL    HW158624   3.257   4.983   4.827 -2.1415  1.4097 -1.0015
19061SOL    HW258625   3.161   5.034   4.933 -1.7234 -1.2433  0.7461
19062SOL     OW58626   7.364   6.976  11.208  0.4339 -0.0932 -0.0749
19062SOL    HW158627   7.390   6.903  11.264 -0.1600  0.2939  0.7141
19062SOL    HW258628   7.280   6.950  11.172 -0.6937  0.9445  1.6587
19063SOL     OW58629   7.040   6.931   4.219 -0.2648  0.1245  0.3522
19063SOL    HW158630   7.021   6.929   4.126  1.1942  0.6734  0.0293
19063SOL    HW258631   7.103   7.003   4.230 -0.2035 -0.1059  1.7154
19064SOL     OW58632   7.173   2.158   4.575 -0.2114  0.6627 -0.1709
19064SOL    HW158633   7.159   2.064   4.565 -0.1851  0.5322  0.8735
19064SOL    HW258634   7.098   2.188   4.626  0.2958  1.0127  0.3843
19065SOL     OW58635   2.719   2.547   2.241 -0.0575  0.2962 -0.4827
19065SOL    HW158636   2.650   2.554   2.307  0.9582 -0.3801  0.6918
19065SOL    HW258637   2.795   2.592   2.280  0.2085  0.9702 -1.7198
19066SOL     OW58638   1.742   0.190   1.124 -0.3747  0.2654  0.4161
19066SOL    HW158639   1.707   0.102   1.140 -0.4726 -0.2025 -2.0158
19066SOL    HW258640   1.834   0.175   1.101  0.2003  1.0443  2.0517
19067SOL     OW58641   7.013   2.679   1.252 -0.1763 -0.5579  0.6894
19067SOL    HW158642   7.060   2.761   1.266 -1.8691  0.4958  0.4807
19067SOL    HW258643   6.935   2.704   1.203 -0.6240 -2.3418  0.4149
19068SOL     OW58644   0.085   3.966   6.914 -0.1087 -0.4827  0.5495
19068SOL    HW158645  -0.005   3.933   6.908 -0.4165  0.5654 -1.4284
19068SOL    HW258646   0.113   3.943   7.002 -2.8208  0.4398  1.7610
19069SOL     OW58647   3.423   5.562   2.197 -0.2676 -0.3919 -0.3693
19069SOL    HW158648   3.392   5.646   2.229 -1.7587 -0.9330 -0.3149
19069SOL    HW258649   3.343   5.513   2.176  0.5927 -1.3037 -1.6844
19070SOL     OW58650   1.909   3.646   1.081  0.2126 -0.7922 -0.1316
19070SOL    HW158651   1.855   3.572   1.054  0.6361 -1.9307  1.9300
19070SOL    HW258652   1.999   3.614   1.074  0.3811 -0.6549  1.1758
19071SOL     OW58653   3.229   6.083  10.497  0.0059 -0.1217  0.5481
19071SOL    HW158654   3.191   6.072  10.410  0.4667 -4.0076  0.6681
19071SOL    HW258655   3.155   6.099  10.555 -0.3536  1.9134 -0.3834
19072SOL     OW58656   7.112   3.108   3.476 -0.6377 -0.3776 -0.1388
19072SOL    HW158657   7.107   3.203   3.486 -1.7164 -0.2986 -1.1579
19072SOL    HW258658   7.021   3.080   3.464 -0.2878 -1.4673 -0.3879
19073SOL     OW58659   1.714   4.124   0.987 -0.3392 -0.1726 -0.6253
19073SOL    HW158660   1.789   4.170   1.024 -0.3611  0.9545 -1.9167
19073SOL    HW258661   1.724   4.033   1.016  1.4237 -0.0103 -0.6566
19074SOL     OW58662   2.671   3.075   5.269  0.3624  0.3019 -0.2674
19074SOL    HW158663   2.656   3.003   5.331  0.3500  1.0830  0.6501
19074SOL    HW258664   2.756   3.111   5.294  0.5002  0.4383 -0.9074
19075SOL     OW58665   7.695   3.726   3.247 -0.1868  0.2766  0.1045
19075SOL    HW158666   7.667   3.748   3.158 -0.5041  2.9007  0.7730
19075SOL    HW258667   7.614   3.704   3.293 -0.1503 -0.0661  0.0049
19076SOL     OW58668   6.414   6.469   3.297  0.0011 -0.0015 -0.2543
19076SOL    HW158669   6.492   6.477   3.352  0.9193 -0.0186 -1.4997
19076SOL    HW258670   6.366   6.550   3.311  0.3550  0.1085  0.3611
19077SOL     OW58671   1.593   1.118   2.935 -0.6043  0.3061  0.6091
19077SOL    HW158672   1.562   1.028   2.927  1.0698 -0.2715  0.2165
19077SOL    HW258673   1.575   1.157   2.849  0.0635 -0.1344  0.2614
19078SOL     OW58674   3.537   4.330   1.078  0.0712  0.2389 -0.2684
19078SOL    HW158675   3.528   4.235   1.072  1.0619  0.1039  0.2450
19078SOL    HW258676   3.501   4.352   1.164 -1.5740  0.5293 -1.0029
19079SOL     OW58677   3.061   5.257  11.661  0.0508  0.0846 -0.5874
19079SOL    HW158678   3.096   5.208  11.587  0.4030 -0.3545 -0.1384
19079SOL    HW258679   3.091   5.346  11.648  0.4541 -0.0767 -0.7567
19080SOL     OW58680   2.683   6.334   5.203  0.1095 -0.1463  0.3303
19080SOL    HW158681   2.691   6.333   5.299  0.7880 -1.1569  0.2742
19080SOL    HW258682   2.696   6.243   5.177  0.4672  0.2074 -0.7673
19081SOL     OW58683   2.211   0.387   6.559 -0.1340 -0.0637 -0.1502
19081SOL    HW158684   2.219   0.342   6.474 -1.4503 -2.8320  1.0473
19081SOL    HW258685   2.273   0.341   6.615 -0.4094  0.6955  0.7893
19082SOL     OW58686   5.404   4.705  11.922  0.5598 -0.1712  0.1145
19082SOL    HW158687   5.456   4.723  11.844  0.6024 -1.5471 -0.2080
19082SOL    HW258688   5.395   4.789  11.966  1.2204  0.4725 -0.9561
19083SOL     OW58689   1.052   0.206   1.114  0.0878  0.0979 -0.1815
19083SOL    HW158690   1.063   0.293   1.153 -1.3118 -0.2594  1.0865
19083SOL    HW258691   1.016   0.224   1.027 -2.2726  0.7969  0.8510
19084SOL     OW58692   2.219   6.020   7.673 -0.2325  0.6107  0.2077
19084SOL    HW158693   2.227   5.930   7.641  2.7413  0.5076  0.8989
19084SOL    HW258694   2.287   6.069   7.626  0.6439  1.6307  2.3475
19085SOL     OW58695   1.901   0.989   4.081 -0.0762 -0.1754  0.0461
19085SOL    HW158696   1.993   1.012   4.098  0.2700 -1.4026 -0.0494
19085SOL    HW258697   1.866   0.965   4.166 -0.3118  0.2633  0.0767
19086SOL     OW58698   4.530   3.706   0.704 -0.2038 -0.2525 -0.1257
19086SOL    HW158699   4.578   3.787   0.721 -0.3939 -0.1327 -0.1605
19086SOL    HW258700   4.472   3.697   0.779  0.1415 -0.5984  0.1048
19087SOL     OW58701   7.505   0.663   7.922  0.6493 -0.2489 -0.3036
19087SOL    HW158702   7.584   0.679   7.871  0.4060 -0.4938 -0.7684
19087SOL    HW258703   7.434   0.697   7.868  0.3740 -0.6270 -0.1841
19088SOL     OW58704   2.801   7.663   2.127 -0.1048 -0.0561 -0.0456
19088SOL    HW158705   2.785   7.672   2.033 -0.2786 -0.3044 -0.0396
19088SOL    HW258706   2.732   7.605   2.158  0.3772 -0.5579  0.1117
19089SOL     OW58707   5.791   7.839   5.069  0.1576 -0.4381  0.1886
19089SOL    HW158708   5.737   7.856   5.146  0.0330 -0.3841  0.0875
19089SOL    HW258709   5.779   7.745   5.052  0.0751 -0.4205  0.1502
19090SOL     OW58710   2.410   3.082  10.263 -0.1852 -0.6220 -0.3728
19090SOL    HW158711   2.478   3.021  10.235  0.9629  0.2204  0.4391
19090SOL    HW258712   2.443   3.168  10.238 -0.1867 -0.0555  1.4088
19091SOL     OW58713   2.786   0.547   8.517 -0.2360 -0.0645 -0.1559
19091SOL    HW158714   2.833   0.616   8.469 -0.0777  0.7110  1.0655
19091SOL    HW258715   2.710   0.527   8.462 -1.8416  3.0881  0.7083
19092SOL     OW58716   7.301   5.971   8.068 -0.0411  0.1827 -0.0579
19092SOL    HW158717   7.246   5.950   8.144 -1.1652  1.4533 -0.4891
19092SOL    HW258718   7.354   5.892   8.054 -1.2696 -0.8234  0.7940
19093SOL     OW58719   3.344   5.628   6.558 -0.6589 -0.3053  0.7675
19093SOL    HW158720   3.282   5.648   6.488 -0.9392 -0.9314  0.8375
19093SOL    HW258721   3.415   5.691   6.544 -1.2898  0.4028  0.6762
19094SOL     OW58722   2.679   4.172   8.652 -0.3943  0.1215 -0.1422
19094SOL    HW158723   2.631   4.248   8.619  2.0496  2.2986  0.9727
19094SOL    HW258724   2.647   4.160   8.741 -1.6023 -0.9702 -0.6877
19095SOL     OW58725   7.548   2.511   6.299  0.0981 -0.5403 -0.2042
19095SOL    HW158726   7.554   2.468   6.213  1.2159 -0.6256 -0.0930
19095SOL    HW258727   7.483   2.581   6.286 -1.4043 -1.9239 -0.5150
19096SOL     OW58728   6.399   7.291   2.986 -0.5358 -0.1362 -0.2804
19096SOL    HW158729   6.314   7.331   2.966 -1.7974 -1.0093  2.7301
19096SOL    HW258730   6.392   7.201   2.952  0.4437  0.6349 -2.7283
19097SOL     OW58731   3.601   4.987   2.230 -0.2317  0.2621  0.2413
19097SOL    HW158732   3.562   5.063   2.185  0.0348  0.1887 -0.1161
19097SOL    HW258733   3.678   4.965   2.177  0.9790  1.1225  1.5646
19098SOL     OW58734   5.913   4.036   3.864  0.2932  0.4140 -0.0180
19098SOL    HW158735   5.933   3.945   3.884 -0.6277  0.1517 -0.2238
19098SOL    HW258736   5.868   4.069   3.942  0.5489  0.6674  0.0243
19099SOL     OW58737   1.726   1.484   2.404  0.3259 -0.6620 -0.9615
19099SOL    HW158738   1.770   1.542   2.342  1.5263 -1.9173 -1.3075
19099SOL    HW258739   1.676   1.423   2.350 -1.4570  0.3795 -0.5867
19100SOL     OW58740   2.588   2.204   6.717 -0.0085 -0.2011  0.2207
19100SOL    HW158741   2.629   2.158   6.643  0.6100  0.5881  0.0603
19100SOL    HW258742   2.495   2.186   6.707  0.2241 -1.5522  0.2538
19101SOL     OW58743   3.421   6.460  10.698 -0.2408 -0.0584 -0.5032
19101SOL    HW158744   3.470   6.506  10.766  0.6270 -0.4765 -0.8380
19101SOL    HW258745   3.353   6.412  10.746  0.3304 -0.3079  0.0633
19102SOL     OW58746   6.004   5.412  11.713  0.3351  0.2128  0.6765
19102SOL    HW158747   6.004   5.407  11.808  0.0804  0.4573  0.6930
19102SOL    HW258748   5.911   5.405  11.689  0.2740  1.3712  0.5201
19103SOL     OW58749   0.876   5.393   9.778  0.1398 -0.7425  0.5579
19103SOL    HW158750   0.967   5.421   9.768 -0.3429  0.3405 -1.3959
19103SOL    HW258751   0.879   5.325   9.845  2.3897 -0.8158  0.4699
19104SOL     OW58752   6.187   2.434  12.296  0.1036  0.3371 -0.1130
19104SOL    HW158753   6.170   2.498  12.227  1.8939  0.1015 -0.8291
19104SOL    HW258754   6.160   2.350  12.259  0.0918  0.3530 -0.1401
19105SOL     OW58755   5.786   1.942   5.857 -0.0348 -0.8017 -0.0707
19105SOL    HW158756   5.700   1.982   5.867  1.0847  1.6152  0.6572
19105SOL    HW258757   5.788   1.874   5.924 -1.3642 -0.8991 -0.0983
19106SOL     OW58758   2.265   3.938   9.900  0.3246 -0.1841 -0.1759
19106SOL    HW158759   2.192   3.998   9.918  0.0918 -0.1267 -1.2280
19106SOL    HW258760   2.247   3.905   9.812  0.7403 -1.3859  0.1620
19107SOL     OW58761   2.154   4.640   0.662  0.6316 -0.4301 -0.1330
19107SOL    HW158762   2.071   4.675   0.629  0.2720 -1.2778 -0.1504
19107SOL    HW258763   2.198   4.716   0.700 -0.2017  0.0191 -0.0226
19108SOL     OW58764   0.256   0.303   8.296  0.4587 -0.3369  1.0683
19108SOL    HW158765   0.235   0.322   8.387 -1.1857  0.8084  0.4787
19108SOL    HW258766   0.243   0.208   8.288 -0.0459 -0.3412  1.8465
19109SOL     OW58767   4.706   6.383   3.005  0.2093  0.7257 -0.1862
19109SOL    HW158768   4.737   6.473   3.014  1.7948  0.1674  0.2802
19109SOL    HW258769   4.673   6.378   2.915  1.2228  1.4465 -0.6175
19110SOL     OW58770   1.850   6.382   3.788  0.3228 -0.4169 -0.0375
19110SOL    HW158771   1.924   6.399   3.731 -2.1114  1.6264 -2.8724
19110SOL    HW258772   1.805   6.466   3.796 -1.3042 -1.3774  2.2288
19111SOL     OW58773   5.132   7.645   4.443  0.3231 -0.4400  0.2683
19111SOL    HW158774   5.113   7.563   4.397  2.8671 -0.0267 -1.7525
19111SOL    HW258775   5.055   7.700   4.429 -0.8495 -1.9602  0.4821
19112SOL     OW58776   4.849   7.509  12.167 -0.5017 -0.1176  0.2055
19112SOL    HW158777   4.835   7.597  12.203 -1.0576 -0.2226  0.2562
19112SOL    HW258778   4.761   7.472  12.161 -0.1188 -1.6115  2.5257
19113SOL     OW58779   1.350   4.835   3.281  0.0791 -0.1058  0.6453
19113SOL    HW158780   1.272   4.804   3.328 -0.7145 -0.9156 -1.1319
19113SOL    HW258781   1.385   4.905   3.337 -2.5704  1.1073  0.9438
19114SOL     OW58782   7.546   7.231   6.224  0.1088  0.4663  0.5506
19114SOL    HW158783   7.515   7.314   6.188 -0.0671  0.1714 -0.0031
19114SOL    HW258784   7.588   7.254   6.307  0.2721  1.1361  0.2901
19115SOL     OW58785   6.082   6.581   6.101 -0.0431  0.0613  0.3900
19115SOL    HW158786   6.032   6.663   6.106 -0.6148 -0.2927  0.5144
19115SOL    HW258787   6.173   6.609   6.102 -0.2315  0.7324 -0.0433
19116SOL     OW58788   5.536   5.159   2.611 -0.5723 -0.3708  0.3275
19116SOL    HW158789   5.610   5.217   2.631 -0.0570 -1.1209  0.6716
19116SOL    HW258790   5.530   5.160   2.516 -1.5798  1.4500  0.3653
19117SOL     OW58791   0.649   0.318  10.725 -0.4236  0.2550  0.0521
19117SOL    HW158792   0.564   0.279  10.747 -0.3676  0.4160  0.5794
19117SOL    HW258793   0.640   0.348  10.635 -0.3471 -1.3294 -0.5268
19118SOL     OW58794   7.837   6.582  11.129  0.1350 -0.6034 -0.4525
19118SOL    HW158795   7.835   6.496  11.170 -0.0399 -1.0847 -1.4388
19118SOL    HW258796   7.862   6.642  11.200 -0.3378 -1.3736  0.3828
19119SOL     OW58797   0.202   4.288   9.109 -0.2634  0.2358  0.1937
19119SOL    HW158798   0.226   4.378   9.130  0.5301 -0.0283  0.4620
19119SOL    HW258799   0.107   4.290   9.102 -0.1851  1.2962 -0.7983
19120SOL     OW58800   6.121   3.853   7.192  0.9129 -0.1343  0.5192
19120SOL    HW158801   6.145   3.761   7.205  2.5466  0.4584  2.3112
19120SOL    HW258802   6.165   3.899   7.264 -1.7389  1.7809  1.0705
19121SOL     OW58803   0.811   3.648   3.472 -0.3237  0.3640  0.1065
19121SOL    HW158804   0.905   3.665   3.461 -0.1582 -0.2886  0.4071
19121SOL    HW258805   0.778   3.725   3.518 -0.2864  1.3785 -1.4867
19122SOL     OW58806   6.489   7.338   1.690  0.2476  0.0610  0.5123
19122SOL    HW158807   6.515   7.258   1.643 -2.7926 -0.4624 -0.5028
19122SOL    HW258808   6.404   7.316   1.730  0.0385  2.3310  1.4886
19123SOL     OW58809   6.687   2.774   4.768 -0.2573  0.2551 -0.1936
19123SOL    HW158810   6.599   2.801   4.743 -0.4117  0.5297  0.6517
19123SOL    HW258811   6.742   2.801   4.694 -0.7131  1.0726 -0.2412
19124SOL     OW58812   7.287   4.697   7.747 -0.0207  0.4177  0.1838
19124SOL    HW158813   7.380   4.710   7.731 -0.1574 -0.4835 -1.5895
19124SOL    HW258814   7.251   4.673   7.662 -1.2304 -2.8235  1.4525
19125SOL     OW58815   5.717   1.224   2.713 -0.0490 -0.2927  0.4003
19125SOL    HW158816   5.652   1.294   2.714  0.0075 -0.1990 -1.1197
19125SOL    HW258817   5.794   1.262   2.756  0.1239  0.7471 -0.7643
19126SOL     OW58818   4.956   5.079   7.240 -0.0665 -0.0440 -0.1670
19126SOL    HW158819   5.014   5.005   7.257  1.6244  0.9334 -1.3288
19126SOL    HW258820   4.889   5.045   7.182 -1.3326 -1.4589  1.9949
19127SOL     OW58821   2.164   3.179   0.646 -0.7832 -0.1920  0.1639
19127SOL    HW158822   2.187   3.142   0.561 -1.3445  0.8609 -0.4693
19127SOL    HW258823   2.167   3.274   0.632  0.7167  0.0563  1.7499
19128SOL     OW58824   5.789   4.223   7.225  0.5062 -0.2787 -0.0954
19128SOL    HW158825   5.771   4.137   7.188 -0.0776 -0.5568  0.7898
19128SOL    HW258826   5.840   4.205   7.304 -0.6267  0.0886  0.7432
19129SOL     OW58827   3.816   4.208   2.013  0.0844 -0.9773  0.4645
19129SOL    HW158828   3.804   4.207   1.919  1.9609  1.4713  0.1125
19129SOL    HW258829   3.891   4.150   2.028  1.7054  0.9058  0.0242
19130SOL     OW58830   4.258   2.538  11.777 -0.2310 -0.0121 -0.5558
19130SOL    HW158831   4.301   2.584  11.849 -1.1579  0.2132 -0.1294
19130SOL    HW258832   4.199   2.603  11.738  0.2781 -0.1221 -1.5509
19131SOL     OW58833   6.874   6.587   9.800  0.2703  0.3514  0.0595
19131SOL    HW158834   6.788   6.569   9.838 -0.3118  1.2722 -0.8001
19131SOL    HW258835   6.902   6.503   9.763  0.6146 -0.4436  1.9780
19132SOL     OW58836   7.462   6.308   4.952  0.0195 -0.4067  0.3479
19132SOL    HW158837   7.385   6.364   4.937 -1.3080 -2.4010 -0.6886
19132SOL    HW258838   7.533   6.354   4.907 -0.5505  1.3720  1.1375
19133SOL     OW58839   3.969   2.557   4.933  0.5717  0.2289  0.0043
19133SOL    HW158840   4.014   2.477   4.904  2.9064  1.2707  0.4580
19133SOL    HW258841   4.013   2.580   5.016 -0.9888  1.2386  0.5885
19134SOL     OW58842   2.601   7.137   6.570 -0.1706  0.0716 -0.4055
19134SOL    HW158843   2.567   7.139   6.480 -0.1276  1.0938 -0.4141
19134SOL    HW258844   2.695   7.152   6.561  0.3485 -2.6959 -0.3772
19135SOL     OW58845   4.599   2.900   9.112  0.3117  0.8539 -0.0847
19135SOL    HW158846   4.559   2.982   9.082 -0.9612 -0.1165 -1.1148
19135SOL    HW258847   4.562   2.832   9.056  0.9212 -0.5182  1.0936
19136SOL     OW58848   3.865   0.839   1.531  0.0553  0.5797  0.8244
19136SOL    HW158849   3.827   0.834   1.619 -2.1949 -0.7883 -0.1374
19136SOL    HW258850   3.793   0.870   1.476  0.6506 -0.9588 -0.9143
19137SOL     OW58851   5.223   2.159   7.632 -0.1243 -0.5068 -0.0370
19137SOL    HW158852   5.228   2.198   7.719  1.7480 -0.9621  0.1128
19137SOL    HW258853   5.299   2.100   7.628  0.1704 -0.0677 -2.1785
19138SOL     OW58854   2.177   3.065   8.149  0.5625  0.2075  0.4193
19138SOL    HW158855   2.241   3.078   8.219  0.4548  1.1018  0.3679
19138SOL    HW258856   2.092   3.070   8.193  0.4749  1.4754  0.1378
19139SOL     OW58857   2.214   6.771   4.162 -0.0445 -0.0870 -0.4341
19139SOL    HW158858   2.302   6.737   4.176  0.7478  1.6086 -1.0897
19139SOL    HW258859   2.223   6.834   4.090 -1.4895  1.2773  0.5074
19140SOL     OW58860   2.711   4.001   1.745 -0.0120 -0.4399 -0.0494
19140SOL    HW158861   2.773   3.929   1.731  0.3536 -0.2796  0.6918
19140SOL    HW258862   2.626   3.958   1.753 -0.2360 -0.5671 -2.4274
19141SOL     OW58863   5.409   2.367   7.129  0.0737 -0.0607  0.4668
19141SOL    HW158864   5.468   2.355   7.203 -0.2531 -0.0562  0.7315
19141SOL    HW258865   5.321   2.358   7.167 -0.1410  1.3598  0.3398
19142SOL     OW58866   6.966   5.502   6.870  0.1393 -0.4558  0.1197
19142SOL    HW158867   7.016   5.436   6.823  0.2772  0.4268 -1.0236
19142SOL    HW258868   6.978   5.481   6.963  1.5680 -1.0074 -0.1713
19143SOL     OW58869   0.805   5.258   8.799 -0.0398  0.1117  0.1913
19143SOL    HW158870   0.776   5.329   8.742  0.5994  0.2828  0.0646
19143SOL    HW258871   0.782   5.178   8.753 -1.0794  0.2265  0.4913
19144SOL     OW58872   4.375   6.653   3.399  0.1569  0.3658  0.0343
19144SOL    HW158873   4.300   6.598   3.419 -0.4201  0.7373 -1.0184
19144SOL    HW258874   4.451   6.595   3.407 -0.1266  0.1954  1.9629
19145SOL     OW58875   0.929   6.755   9.307 -0.2396 -0.3554 -0.1723
19145SOL    HW158876   0.997   6.708   9.355 -0.1898 -0.9938 -0.8494
19145SOL    HW258877   0.847   6.727   9.348 -0.0880  0.8814  1.0456
19146SOL     OW58878   1.593   0.474   4.259 -0.0055 -0.6860 -0.1827
19146SOL    HW158879   1.546   0.393   4.236 -0.4949 -0.4951  0.1321
19146SOL    HW258880   1.571   0.489   4.351  1.3375 -1.0319  0.2238
19147SOL     OW58881   6.390   4.085  10.337  0.1259 -0.4949 -0.5099
19147SOL    HW158882   6.317   4.105  10.278  0.2991  0.2251 -0.4827
19147SOL    HW258883   6.468   4.100  10.284  0.2663 -0.7142 -0.3666
19148SOL     OW58884   3.902   6.400   2.866 -0.3533  0.1055 -0.4588
19148SOL    HW158885   3.964   6.336   2.831 -0.6674 -0.0986 -0.6441
19148SOL    HW258886   3.820   6.351   2.876  0.2775 -0.5034  2.7694
19149SOL     OW58887   2.410   0.928   3.016 -0.2986 -0.3087 -0.8111
19149SOL    HW158888   2.371   1.011   3.044  1.6239  0.3478  0.1278
19149SOL    HW258889   2.406   0.931   2.920 -3.2223 -0.6825 -0.7772
19150SOL     OW58890   4.633   1.857   7.648 -0.0580  0.2587  0.2585
19150SOL    HW158891   4.598   1.811   7.572  0.3342 -0.7256  0.6540
19150SOL    HW258892   4.672   1.788   7.702  0.9560  1.1093  0.6569
19151SOL     OW58893   5.470   5.373   8.030  0.0281 -0.1049 -0.3839
19151SOL    HW158894   5.413   5.332   8.095  0.9198 -0.2613  0.3191
19151SOL    HW258895   5.461   5.318   7.952 -0.1487 -0.6099 -0.0130
19152SOL     OW58896   7.423   2.368   7.187 -0.1854 -0.1260  0.4997
19152SOL    HW158897   7.472   2.420   7.251  0.0108 -0.1322  0.3565
19152SOL    HW258898   7.431   2.417   7.105  0.6179 -0.7420  0.1977
19153SOL     OW58899   5.143   1.808   0.101 -0.4587 -0.1459  0.4682
19153SOL    HW158900   5.208   1.780   0.165  0.4775 -2.6576 -1.4620
19153SOL    HW258901   5.122   1.898   0.127  1.1302 -0.4653  3.2339
19154SOL     OW58902   3.919   6.587   9.574  0.1935 -0.2937  0.1168
19154SOL    HW158903   3.942   6.542   9.493 -0.3265 -0.8140  0.2523
19154SOL    HW258904   3.825   6.571   9.584  0.3846 -0.7730  1.1632
19155SOL     OW58905   4.843   7.546  10.598 -0.2667 -0.0346  0.4849
19155SOL    HW158906   4.863   7.630  10.641 -0.1663 -0.3158  0.9954
19155SOL    HW258907   4.929   7.513  10.572 -0.2979 -0.0290  0.3767
19156SOL     OW58908   6.570   2.799   9.556 -0.0335 -0.0895  0.5189
19156SOL    HW158909   6.480   2.791   9.525  0.1337 -0.6116  0.1388
19156SOL    HW258910   6.567   2.867   9.623 -1.0252 -1.2428  1.7032
19157SOL     OW58911   3.364   1.967   5.425  0.4140 -0.1124  0.2241
19157SOL    HW158912   3.429   1.977   5.494 -0.2007  0.9407  0.6854
19157SOL    HW258913   3.280   1.977   5.470 -0.1208 -1.8913 -0.2760
19158SOL     OW58914   1.487   1.852   6.868 -0.0301 -0.4035  0.3226
19158SOL    HW158915   1.463   1.917   6.934  1.2139 -1.1970  1.6358
19158SOL    HW258916   1.476   1.768   6.913  0.4165 -0.9928 -0.6341
19159SOL     OW58917   2.223   3.200  11.542 -0.2571 -0.2368 -0.4089
19159SOL    HW158918   2.179   3.115  11.543 -1.8295  0.4504  2.3929
19159SOL    HW258919   2.278   3.199  11.621  1.7464  0.4250 -1.7350
19160SOL     OW58920   0.711   2.671   6.219  0.2576  0.5890  0.5137
19160SOL    HW158921   0.699   2.584   6.257 -2.8861  1.5891  2.1656
19160SOL    HW258922   0.743   2.725   6.292  0.7759  1.1263 -0.0951
19161SOL     OW58923   4.693   6.583   1.028 -0.0870 -0.2020  0.2235
19161SOL    HW158924   4.614   6.634   1.048 -0.3970 -0.7985  0.5384
19161SOL    HW258925   4.721   6.548   1.112  0.1845 -0.4647  0.0268
19162SOL     OW58926   6.521   3.997   2.842  0.7475 -0.1688  0.4584
19162SOL    HW158927   6.582   4.061   2.880 -0.6926  0.4056  1.9173
19162SOL    HW258928   6.445   4.049   2.815  1.6026 -0.5732 -3.1986
19163SOL     OW58929   1.076   2.033  10.571  0.1871 -0.0254 -0.3376
19163SOL    HW158930   1.073   1.966  10.504 -0.9329  0.6073 -0.9602
19163SOL    HW258931   1.139   2.098  10.539 -0.8224  0.5940 -1.1142
19164SOL     OW58932   1.423   1.176  11.552 -0.1468 -0.2741 -0.4222
19164SOL    HW158933   1.369   1.106  11.515  2.4453 -2.2358 -0.8176
19164SOL    HW258934   1.395   1.182  11.643 -0.8412 -1.4036 -0.5423
19165SOL     OW58935   2.852   5.939   0.475 -0.1629 -0.0143  0.4094
19165SOL    HW158936   2.808   5.872   0.424 -0.0562  0.3925 -0.2235
19165SOL    HW258937   2.850   5.906   0.565  0.8432 -1.3736 -0.0486
19166SOL     OW58938   1.066   3.398   2.874  0.4737 -0.3716  0.3812
19166SOL    HW158939   1.081   3.487   2.842  0.2052 -0.5355 -0.2166
19166SOL    HW258940   1.100   3.342   2.804 -2.5126 -0.7642 -0.9140
19167SOL     OW58941   7.260   7.831  10.666  0.0260 -0.2878  0.2107
19167SOL    HW158942   7.341   7.795  10.701  0.6628  0.5234 -0.4005
19167SOL    HW258943   7.247   7.913  10.714 -0.8051 -0.7312  0.7821
19168SOL     OW58944   1.341   2.258   1.803  0.1631  0.2351  0.3280
19168SOL    HW158945   1.432   2.236   1.825  0.9886  0.2656 -2.6132
19168SOL    HW258946   1.297   2.174   1.796  0.0812  0.1952  1.1675
19169SOL     OW58947   5.863   0.666  11.270 -0.0784 -0.2240  0.1843
19169SOL    HW158948   5.955   0.661  11.245 -0.0112 -0.2043  0.4219
19169SOL    HW258949   5.853   0.600  11.338 -0.3266 -0.4795 -0.1010
19170SOL     OW58950   5.760   4.143   6.028  0.8082  0.0727 -0.1856
19170SOL    HW158951   5.753   4.150   6.123 -1.3592  1.3213 -0.3657
19170SOL    HW258952   5.676   4.106   6.000  0.8062  1.0923 -1.6905
19171SOL     OW58953   3.599   6.387   5.114  0.3812  0.0906  0.2149
19171SOL    HW158954   3.544   6.382   5.036 -2.1701 -1.7749  1.9362
19171SOL    HW258955   3.604   6.480   5.136  1.9736  0.7683 -2.5759
19172SOL     OW58956   5.044   1.362   8.776  0.3522  0.3679 -0.6651
19172SOL    HW158957   4.994   1.406   8.844 -1.3479 -0.5679 -1.2660
19172SOL    HW258958   5.074   1.433   8.720  0.5874  1.0286  0.2717
19173SOL     OW58959   6.746   3.638   5.178  0.0055 -0.0251  0.0772
19173SOL    HW158960   6.829   3.670   5.142  0.8157 -1.2577  0.7818
19173SOL    HW258961   6.743   3.545   5.154 -0.9628 -0.1053  0.4518
19174SOL     OW58962   3.712   5.116   0.048  0.3985  0.4843 -0.4900
19174SOL    HW158963   3.802   5.106   0.079  1.1353 -1.3225 -2.9345
19174SOL    HW258964   3.662   5.052   0.099  0.4719  1.4451  0.8287
19175SOL     OW58965   5.012   5.264   6.791 -0.0412 -0.4760  0.4970
19175SOL    HW158966   4.948   5.193   6.789 -0.0794 -0.4892  1.8327
19175SOL    HW258967   4.971   5.333   6.843  0.9329 -0.3925  1.1737
19176SOL     OW58968   0.252   1.679   0.039  0.5967 -0.2911  0.3784
19176SOL    HW158969   0.201   1.712   0.113 -0.0459  0.4309 -0.3554
19176SOL    HW258970   0.341   1.710   0.055  0.5726 -0.5762  1.0981
19177SOL     OW58971   5.625   5.770   0.419  0.0352 -0.3429 -0.2711
19177SOL    HW158972   5.717   5.785   0.396  0.0322 -2.3125 -1.7971
19177SOL    HW258973   5.590   5.719   0.346 -2.0164 -0.5322  0.7736
19178SOL     OW58974   0.074   6.625   1.851  0.2172 -0.6300  0.0981
19178SOL    HW158975   0.004   6.605   1.914 -0.5225 -0.9351 -0.7923
19178SOL    HW258976   0.110   6.708   1.882 -0.6362 -0.3897  0.5048
19179SOL     OW58977   4.550   3.055  11.441  0.6898 -0.1250 -0.1386
19179SOL    HW158978   4.492   3.004  11.385  1.9614  0.2274 -1.8491
19179SOL    HW258979   4.625   3.075  11.386  2.2366 -0.1489  1.8470
19180SOL     OW58980   3.161   6.076   2.553  0.3286  0.4557  0.5839
19180SOL    HW158981   3.090   6.135   2.577 -0.5204 -0.6891  0.9823
19180SOL    HW258982   3.118   6.005   2.505  1.5785  1.0903 -1.5651
19181SOL     OW58983   4.740   5.601   8.397 -0.0715  0.2642 -0.2752
19181SOL    HW158984   4.746   5.665   8.468 -0.6563 -0.4908  0.4728
19181SOL    HW258985   4.680   5.533   8.430 -2.3447  1.0806 -2.3999
19182SOL     OW58986   6.424   3.710   4.725  0.2584  0.3442  0.0351
19182SOL    HW158987   6.369   3.692   4.648  0.5204 -4.0660  0.6300
19182SOL    HW258988   6.366   3.699   4.800  1.1002 -0.5543  0.5762
19183SOL     OW58989   5.114   1.308   7.826  0.1625 -0.1757  0.4393
19183SOL    HW158990   5.084   1.379   7.770 -0.5362  0.3852  1.5062
19183SOL    HW258991   5.205   1.331   7.847  0.2220 -0.0623  0.0652
19184SOL     OW58992   0.011   5.228   1.934  0.0820 -0.6213 -0.3961
19184SOL    HW158993   0.050   5.247   2.019  2.4469 -0.0022 -1.5449
19184SOL    HW258994  -0.049   5.300   1.919  1.5720  0.6700 -0.3491
19185SOL     OW58995   0.861   6.385   9.993  0.5337  0.2885  0.3059
19185SOL    HW158996   0.855   6.338  10.076  1.1587 -0.3955 -0.0184
19185SOL    HW258997   0.892   6.472  10.016  0.5502  0.1536  0.7997
19186SOL     OW58998   7.809   3.304   5.663  0.1870 -0.8481 -0.1547
19186SOL    HW158999   7.783   3.369   5.729  1.3255 -1.1765  0.6457
19186SOL    HW259000   7.881   3.256   5.704  0.2135 -1.7668 -1.2418
19187SOL     OW59001   7.669   0.297   8.649  0.4899 -0.0831  0.2170
19187SOL    HW159002   7.683   0.205   8.671  1.6178  0.2522  0.9852
19187SOL    HW259003   7.660   0.298   8.554 -1.0952 -1.1613  0.3215
19188SOL     OW59004   5.241   2.280   8.318 -0.7469 -0.3793  0.3610
19188SOL    HW159005   5.200   2.366   8.332  1.7768  1.0007 -0.0661
19188SOL    HW259006   5.323   2.285   8.366 -0.2887 -2.3743 -0.1366
19189SOL     OW59007   4.444   7.463   3.818 -0.0982  0.0009  0.1604
19189SOL    HW159008   4.473   7.400   3.752 -0.6523  0.2846 -0.3684
19189SOL    HW259009   4.448   7.415   3.901  0.8869 -0.2707 -0.0338
19190SOL     OW59010   1.180   1.540   0.068 -0.1308 -0.7020 -0.6309
19190SOL    HW159011   1.217   1.458   0.035  0.3550 -0.4236 -0.7784
19190SOL    HW259012   1.218   1.608   0.013  0.0359 -0.3082 -0.0364
19191SOL     OW59013   0.469   0.197   1.294 -0.0412  0.4591  0.6699
19191SOL    HW159014   0.419   0.119   1.318  1.0839  0.1381  2.0532
19191SOL    HW259015   0.556   0.183   1.329  1.1052  0.9895 -1.7542
19192SOL     OW59016   6.063   1.054   1.103 -0.0315 -0.2570  0.1738
19192SOL    HW159017   6.045   1.067   1.010  2.1456  0.8441 -0.1680
19192SOL    HW259018   6.097   1.138   1.132  0.5230 -0.9685  1.6506
19193SOL     OW59019   7.505   3.571   0.060  0.2568  0.4769 -0.4715
19193SOL    HW159020   7.414   3.590   0.036 -0.4956 -0.5477  1.3747
19193SOL    HW259021   7.557   3.635   0.010 -1.1629 -0.8694 -3.9584
19194SOL     OW59022   3.580   7.599   2.598 -0.4080  0.2502  0.0904
19194SOL    HW159023   3.513   7.636   2.541 -0.0578  0.2406 -0.3238
19194SOL    HW259024   3.535   7.526   2.642 -0.2619 -0.7014 -1.2824
19195SOL     OW59025   2.581   2.074   9.055  0.1040  0.4298  0.0782
19195SOL    HW159026   2.488   2.054   9.054  0.2628 -0.4052  0.7564
19195SOL    HW259027   2.602   2.088   9.148  0.5997  0.8828 -0.0935
19196SOL     OW59028   2.487   0.902   4.806 -0.0884  0.5220  0.0957
19196SOL    HW159029   2.514   0.978   4.858  2.3324 -0.3640  0.2604
19196SOL    HW259030   2.489   0.934   4.715  3.9260  0.0654 -0.1762
19197SOL     OW59031   5.330   3.589   1.244  0.2092  0.1666  0.0198
19197SOL    HW159032   5.295   3.666   1.199  0.4174 -0.2662 -0.9019
19197SOL    HW259033   5.390   3.625   1.309  0.8507  0.7717 -0.8763
19198SOL     OW59034   3.578   6.226   6.943  0.2905  0.0055  0.4084
19198SOL    HW159035   3.629   6.228   6.862  0.5453  1.7306  0.5659
19198SOL    HW259036   3.615   6.297   6.996 -1.7227  0.7651  0.8813
19199SOL     OW59037   5.937   1.633   5.676  0.3148 -0.3841  0.1017
19199SOL    HW159038   6.011   1.580   5.646  0.0922  0.0238 -1.2413
19199SOL    HW259039   5.972   1.722   5.683  0.3824 -0.4894  1.1571
19200SOL     OW59040   2.410   4.112   8.283  0.0696  0.1382  0.3607
19200SOL    HW159041   2.462   4.178   8.327  0.7345  0.3841 -0.7472
19200SOL    HW259042   2.327   4.156   8.262  0.0780  0.2709  0.6082
19201SOL     OW59043   7.522   7.619   4.533  0.6806  0.7099 -0.5298
19201SOL    HW159044   7.545   7.665   4.614 -1.2803  0.2903  0.3479
19201SOL    HW259045   7.449   7.670   4.497  0.2591 -0.1856 -0.9787
19202SOL     OW59046   3.361   6.852   6.973  0.2837 -0.3981 -0.5698
19202SOL    HW159047   3.270   6.832   6.995  0.4093 -0.4999 -0.1533
19202SOL    HW259048   3.354   6.924   6.909 -0.0896 -0.4516 -0.5941
19203SOL     OW59049   7.183   0.822   6.484 -0.1444 -0.1667 -0.0366
19203SOL    HW159050   7.112   0.759   6.473  1.1585 -1.5866 -0.6890
19203SOL    HW259051   7.209   0.843   6.394  0.3396  0.2683  0.2023
19204SOL     OW59052   7.248   1.123   3.657 -0.0458 -0.1001  0.0912
19204SOL    HW159053   7.199   1.144   3.736  0.5277 -0.9197  0.6853
19204SOL    HW259054   7.199   1.051   3.616 -0.4575  0.4656 -0.4133
19205SOL     OW59055   3.864   7.605   4.142 -0.2984 -0.4104  0.9542
19205SOL    HW159056   3.839   7.615   4.234 -0.2483 -1.9529  1.1782
19205SOL    HW259057   3.828   7.519   4.117 -1.6665  0.6446 -0.9393
19206SOL     OW59058   6.674   0.870   5.701  0.4445  0.1434  0.1620
19206SOL    HW159059   6.675   0.961   5.670 -2.7297 -0.1066 -1.0468
19206SOL    HW259060   6.618   0.873   5.779  0.9243 -0.6767  0.5430
19207SOL     OW59061   0.570   3.089   8.183 -0.3831  0.2717 -1.1013
19207SOL    HW159062   0.582   3.169   8.133 -1.6125  0.7334 -0.6904
19207SOL    HW259063   0.646   3.086   8.242 -0.4860  1.2850 -0.9065
19208SOL     OW59064   7.464   6.575   3.456 -0.3281 -0.1269  0.1313
19208SOL    HW159065   7.490   6.661   3.424 -0.0057 -0.3533 -0.2172
19208SOL    HW259066   7.381   6.557   3.412  1.9391 -2.1655 -3.8230
19209SOL     OW59067   3.833   6.504   8.524 -0.0200  0.2647  0.1605
19209SOL    HW159068   3.876   6.556   8.592 -0.0065 -1.0918  1.2483
19209SOL    HW259069   3.887   6.425   8.518  0.3542  0.6320 -1.9303
19210SOL     OW59070   6.229   1.012   9.172 -0.6150 -0.2277  0.4014
19210SOL    HW159071   6.294   0.955   9.211 -0.7575 -0.9895 -0.4409
19210SOL    HW259072   6.259   1.101   9.192 -0.2418 -0.5845  1.4714
19211SOL     OW59073   3.135   6.841   8.391  0.2746 -0.0815  0.6786
19211SOL    HW159074   3.120   6.911   8.454  0.7226  0.1604  0.5199
19211SOL    HW259075   3.049   6.800   8.380  0.2961 -0.4876  1.8646
19212SOL     OW59076   3.330   1.735   7.001  0.4144 -0.4135  0.0751
19212SOL    HW159077   3.276   1.805   6.966  0.0457 -1.0945 -0.7479
19212SOL    HW259078   3.322   1.664   6.937  0.3323 -1.4099  1.1504
19213SOL     OW59079   3.780   7.053   3.661  1.0221 -0.0627 -0.3773
19213SOL    HW159080   3.845   6.984   3.649 -0.4415 -1.5726 -0.0494
19213SOL    HW259081   3.708   7.010   3.708 -0.2871  1.4718 -0.8832
19214SOL     OW59082   3.407   2.140   9.452  0.2825 -0.1643 -0.1736
19214SOL    HW159083   3.424   2.227   9.415 -1.1369 -0.1936 -0.9713
19214SOL    HW259084   3.318   2.147   9.487 -1.1183 -2.1547 -2.9986
19215SOL     OW59085   2.469   5.633   8.173 -0.0227  0.1587 -0.3076
19215SOL    HW159086   2.520   5.657   8.095  0.3150 -1.1912 -0.5282
19215SOL    HW259087   2.389   5.684   8.165 -0.6693 -1.0698 -2.3652
19216SOL     OW59088   3.121   6.223  11.620 -0.2466 -0.2990  0.0318
19216SOL    HW159089   3.093   6.254  11.533 -0.3907 -1.4120 -0.3302
19216SOL    HW259090   3.191   6.284  11.645 -1.9636  1.6666  0.3273
19217SOL     OW59091   2.553   3.948  10.515 -0.4059 -0.7589 -0.3231
19217SOL    HW159092   2.627   3.890  10.530 -2.1820 -2.9235  0.6925
19217SOL    HW259093   2.552   3.962  10.421  0.6405 -1.6375 -0.4842
19218SOL     OW59094   3.887   2.160   9.544 -0.2513  0.1115 -0.0932
19218SOL    HW159095   3.941   2.200   9.611 -2.1656  2.9858 -0.0668
19218SOL    HW259096   3.946   2.147   9.470  1.0497  0.4364  0.8532
19219SOL     OW59097   1.598   5.895   2.736 -0.2220  0.0206 -0.2621
19219SOL    HW159098   1.653   5.823   2.704  0.2266 -0.1609  0.8906
19219SOL    HW259099   1.619   5.968   2.677  1.1302 -0.0960  0.0429
19220SOL     OW59100   4.695   0.182   8.968  0.3271  0.4000  0.7609
19220SOL    HW159101   4.601   0.167   8.969  0.6084 -1.7213  0.4374
19220SOL    HW259102   4.714   0.208   8.877  0.1697  0.0009  0.6144
19221SOL     OW59103   1.525   5.742   5.181  0.2354  0.3851  0.2613
19221SOL    HW159104   1.490   5.827   5.207  1.0396  1.2960 -1.4120
19221SOL    HW259105   1.517   5.742   5.085 -0.2797 -1.6829  0.2602
19222SOL     OW59106   3.967   0.041   2.969  0.6253  0.0142  0.3363
19222SOL    HW159107   3.956   0.010   2.879 -0.3979  3.4179 -0.8725
19222SOL    HW259108   3.891   0.008   3.016  0.5180 -0.7531 -0.3675
19223SOL     OW59109   2.935   7.041   5.739  0.2792 -0.6681  0.0457
19223SOL    HW159110   3.022   7.011   5.716  0.8721  0.1118  1.1624
19223SOL    HW259111   2.882   6.961   5.744  0.9993 -1.1772 -0.3423
19224SOL     OW59112   4.358   4.416   5.922 -0.1764 -0.5027 -0.0899
19224SOL    HW159113   4.347   4.324   5.901  1.5463 -0.9932  0.9619
19224SOL    HW259114   4.399   4.454   5.844 -1.6856 -0.3968 -0.8676
19225SOL     OW59115   4.573   0.007   9.737  0.4556 -0.2149  0.3203
19225SOL    HW159116   4.578   0.031   9.645  0.7245 -1.7521 -0.0875
19225SOL    HW259117   4.661  -0.026   9.758  0.4967  0.4384  1.2255
19226SOL     OW59118   1.104   0.078  10.117 -0.3025 -0.2623 -0.3150
19226SOL    HW159119   1.027   0.081  10.173  0.0702  1.7245  0.1660
19226SOL    HW259120   1.178   0.077  10.178  0.0766 -0.7422 -0.7742
19227SOL     OW59121   3.360   2.369   2.632  0.1175 -0.5342  0.0204
19227SOL    HW159122   3.346   2.455   2.671  0.4088 -0.3983 -0.1743
19227SOL    HW259123   3.381   2.386   2.540  0.9981 -0.7592  0.1714
19228SOL     OW59124   5.970   6.937   4.553  0.1640 -0.6458  0.4044
19228SOL    HW159125   5.880   6.949   4.523  0.4838  0.9126  0.0022
19228SOL    HW259126   5.963   6.940   4.649 -0.1028  0.5894  0.3687
19229SOL     OW59127   1.774   1.282   0.729 -0.7949  0.1688 -0.1154
19229SOL    HW159128   1.842   1.250   0.669 -0.5256 -0.5164  0.5363
19229SOL    HW259129   1.822   1.334   0.794 -0.9963  0.3533 -0.1153
19230SOL     OW59130   4.429   2.299   6.235  0.4037  0.3107  0.2987
19230SOL    HW159131   4.416   2.234   6.167  0.4826  0.4257  0.1744
19230SOL    HW259132   4.520   2.327   6.225  0.2458  0.7478  0.0833
19231SOL     OW59133   6.189   1.671   9.784 -0.5633 -0.3865 -0.3886
19231SOL    HW159134   6.168   1.757   9.821 -2.1352 -0.7480 -0.3672
19231SOL    HW259135   6.171   1.609   9.855  0.8178 -0.7310 -0.3176
19232SOL     OW59136   6.189   4.817  11.361 -0.0381  0.1652  0.7209
19232SOL    HW159137   6.107   4.864  11.342 -0.3513 -0.9854 -1.0147
19232SOL    HW259138   6.161   4.731  11.392  0.5248  0.2056  1.3580
19233SOL     OW59139   1.044   2.043   5.649  0.3926 -0.2274 -0.3946
19233SOL    HW159140   1.006   2.102   5.583 -1.1773  2.0334  2.2727
19233SOL    HW259141   0.972   1.985   5.673  1.0039 -1.1543 -0.7629
19234SOL     OW59142   3.761   6.943   7.907  0.1971  0.2554 -1.2389
19234SOL    HW159143   3.679   6.975   7.944  0.1291 -0.4246 -0.7792
19234SOL    HW259144   3.776   6.999   7.831 -0.3322  0.8347 -0.9339
19235SOL     OW59145   3.432   3.588   4.563 -0.0823 -0.0497  0.4017
19235SOL    HW159146   3.369   3.530   4.519 -0.9122  0.1858  1.2588
19235SOL    HW259147   3.510   3.583   4.508 -1.1512  0.4280 -1.2609
19236SOL     OW59148   1.463   7.555   0.588 -0.4096 -0.4661  0.3415
19236SOL    HW159149   1.377   7.593   0.571  0.1410  1.1075  0.9322
19236SOL    HW259150   1.457   7.466   0.552 -1.7199  0.1695 -1.1489
19237SOL     OW59151   2.681   4.106   6.527  0.1507 -0.2527  0.6912
19237SOL    HW159152   2.627   4.084   6.603 -0.6231  0.4582  0.3655
19237SOL    HW259153   2.756   4.047   6.532  0.4349  0.1925  2.3602
19238SOL     OW59154   1.687   5.449  12.311 -0.4843 -0.1721  0.0744
19238SOL    HW159155   1.765   5.489  12.351  1.6873 -4.4459  0.7227
19238SOL    HW259156   1.713   5.431  12.221 -1.1846 -0.5672 -0.0514
19239SOL     OW59157   3.801   1.804   1.588 -0.0568 -0.3779  0.3209
19239SOL    HW159158   3.742   1.743   1.545  0.4264  0.0066 -0.9508
19239SOL    HW259159   3.880   1.803   1.534 -0.5907  2.5042 -0.7185
19240SOL     OW59160   4.927   3.139   2.086 -0.0476  0.2999 -0.6683
19240SOL    HW159161   4.945   3.174   2.173 -0.1347 -0.4507 -0.3368
19240SOL    HW259162   5.013   3.138   2.043  0.3840 -1.1758  0.1232
19241SOL     OW59163   3.525   0.672   2.455 -0.6932  0.2737 -0.0071
19241SOL    HW159164   3.495   0.620   2.381  1.4920 -1.2684  0.0896
19241SOL    HW259165   3.470   0.645   2.528 -0.1537 -1.3297 -0.1659
19242SOL     OW59166   7.438   1.203  11.966 -0.3995 -0.2360 -0.7882
19242SOL    HW159167   7.473   1.200  11.877 -1.2319  1.3219 -1.1967
19242SOL    HW259168   7.381   1.280  11.967  0.0769  0.1420  1.2801
19243SOL     OW59169   5.254   6.004   3.552 -0.2908 -0.3210  0.4598
19243SOL    HW159170   5.227   5.913   3.554  0.4761 -0.5621  0.2416
19243SOL    HW259171   5.343   6.004   3.589 -0.9149  0.5804  2.1045
19244SOL     OW59172   0.680   7.457   5.061 -0.6504  0.3794 -0.0130
19244SOL    HW159173   0.775   7.467   5.072 -0.1239 -2.4539 -1.0519
19244SOL    HW259174   0.649   7.423   5.145 -0.5187  0.1116 -0.0722
19245SOL     OW59175   6.171   1.709   4.326 -0.3948  0.1218  0.2085
19245SOL    HW159176   6.181   1.713   4.421 -0.3385 -1.0573  0.2764
19245SOL    HW259177   6.260   1.715   4.292 -0.2559 -0.9176  0.3293
19246SOL     OW59178   6.868   3.751   2.439 -0.2240 -0.1251  0.2663
19246SOL    HW159179   6.933   3.793   2.494 -0.3982 -0.8545  1.0442
19246SOL    HW259180   6.801   3.721   2.500 -0.3328 -1.1017 -0.3209
19247SOL     OW59181   6.720   4.258   7.292  0.1282 -0.1732  0.2992
19247SOL    HW159182   6.768   4.199   7.350  0.3570  0.2535  0.5564
19247SOL    HW259183   6.635   4.269   7.334  0.2253 -0.0154  0.4560
19248SOL     OW59184   0.076   3.906   2.301 -0.2292 -0.7105 -1.0403
19248SOL    HW159185   0.133   3.830   2.290  1.5388  0.5628 -1.0493
19248SOL    HW259186   0.117   3.956   2.371 -0.4558  1.0183 -2.0921
19249SOL     OW59187   3.648   7.018   6.591 -0.1116 -0.1522  0.0820
19249SOL    HW159188   3.561   7.005   6.628  0.6949 -0.4416  1.9700
19249SOL    HW259189   3.650   6.960   6.515 -2.2909  1.4528 -1.3469
19250SOL     OW59190   4.264   1.689   8.027  0.1497  0.3777  0.9374
19250SOL    HW159191   4.346   1.732   8.002 -0.1364 -0.5906 -2.1918
19250SOL    HW259192   4.206   1.761   8.051  1.2696  1.2554  1.0950
19251SOL     OW59193   7.048   1.351  10.107  0.1853 -0.0595  0.1464
19251SOL    HW159194   6.982   1.314  10.049  0.2487  0.0624 -0.0048
19251SOL    HW259195   7.128   1.303  10.087 -0.1237 -1.0525  1.1887
19252SOL     OW59196   1.979   7.197   1.662  0.0615  0.0568 -0.4312
19252SOL    HW159197   2.062   7.216   1.618  0.8303 -0.2336  0.8692
19252SOL    HW259198   1.935   7.282   1.667 -0.2126  0.0528 -2.0309
19253SOL     OW59199   0.892   0.975   0.565  0.5192  0.0156 -0.0469
19253SOL    HW159200   0.922   0.906   0.506  0.2734 -0.1815  0.0579
19253SOL    HW259201   0.972   1.016   0.597  0.6531  1.4581 -2.0610
19254SOL     OW59202   1.064   4.172   0.628  0.0728  0.0090  0.2368
19254SOL    HW159203   0.996   4.108   0.648 -0.5265  0.3807 -0.5645
19254SOL    HW259204   1.025   4.229   0.561  0.1073  1.9919  1.8051
19255SOL     OW59205   4.871   7.156   6.977 -0.7159 -0.0371  0.3212
19255SOL    HW159206   4.897   7.108   7.056  0.8277 -1.7300 -1.0993
19255SOL    HW259207   4.782   7.128   6.959 -0.1859 -1.6996  0.0956
19256SOL     OW59208   4.683   3.190  11.918 -0.2999  0.0839 -0.2042
19256SOL    HW159209   4.648   3.102  11.932  0.3985 -0.2304 -0.4124
19256SOL    HW259210   4.681   3.201  11.822  1.6820 -0.5843 -0.3667
19257SOL     OW59211   1.752   1.531   1.091  0.3570  0.4049  0.2092
19257SOL    HW159212   1.687   1.599   1.073 -1.1395 -0.9036  0.4841
19257SOL    HW259213   1.772   1.494   1.004  1.0699  1.0748  0.0760
19258SOL     OW59214   5.435   3.767   1.438 -0.0145 -0.6084 -0.3364
19258SOL    HW159215   5.475   3.722   1.511 -0.7683 -0.6014  0.0901
19258SOL    HW259216   5.505   3.820   1.400  1.0942 -2.6471 -1.3054
19259SOL     OW59217   0.513   5.615   7.623 -0.6697 -0.1789  0.0080
19259SOL    HW159218   0.459   5.631   7.546 -0.0049 -0.2997 -0.4891
19259SOL    HW259219   0.585   5.678   7.616  0.7467 -1.7934 -0.7911
19260SOL     OW59220   2.054   0.469  10.776  0.2595 -0.3541  0.9270
19260SOL    HW159221   2.028   0.520  10.852  0.1244 -1.0452  1.3540
19260SOL    HW259222   2.033   0.525  10.701 -0.6998 -0.1458  1.3389
19261SOL     OW59223   1.479   5.249   4.018 -0.5531  0.0973 -0.0933
19261SOL    HW159224   1.564   5.220   3.986 -1.0951 -1.4753 -0.1785
19261SOL    HW259225   1.493   5.267   4.111  0.5214  2.6589 -0.6567
19262SOL     OW59226   5.063   0.083   6.452  0.2474 -0.1562 -0.1910
19262SOL    HW159227   5.057  -0.011   6.436 -0.6103 -0.6507  2.5170
19262SOL    HW259228   4.991   0.120   6.400  1.3260 -0.7570 -2.2417
19263SOL     OW59229   2.724   5.821   8.684  0.2268  0.4215 -0.1409
19263SOL    HW159230   2.658   5.802   8.751  0.9269 -0.1113  0.4182
19263SOL    HW259231   2.679   5.807   8.601 -0.2964 -0.2009  0.2331
19264SOL     OW59232   6.937   6.562  11.273 -0.3143 -0.3124 -0.2234
19264SOL    HW159233   6.986   6.631  11.317 -1.3579 -0.2285  0.8554
19264SOL    HW259234   6.848   6.596  11.267 -0.5654 -1.0546 -0.8183
19265SOL     OW59235   2.785   7.230   4.548 -0.2983  0.0118  0.1211
19265SOL    HW159236   2.735   7.311   4.545  0.4719  0.5550  1.5169
19265SOL    HW259237   2.823   7.222   4.460 -2.3527 -0.1451 -0.8000
19266SOL     OW59238   3.388   0.920   3.159 -0.4873 -0.0436 -0.5552
19266SOL    HW159239   3.333   0.841   3.151 -3.0464  1.7303 -1.9024
19266SOL    HW259240   3.424   0.933   3.071 -1.3565  1.1048 -0.7585
19267SOL     OW59241   0.633   6.530   3.545  0.1306 -0.3803 -0.2000
19267SOL    HW159242   0.696   6.585   3.592  0.5876  0.0102 -1.2435
19267SOL    HW259243   0.633   6.448   3.594  2.1978 -0.7440 -0.6909
19268SOL     OW59244   0.431   0.276  10.286 -0.0761 -0.2980 -0.1179
19268SOL    HW159245   0.428   0.181  10.278  3.0881 -0.3938 -1.2903
19268SOL    HW259246   0.413   0.308  10.198 -1.2951  0.2484  0.3054
19269SOL     OW59247   1.313   4.444   2.202 -0.1246 -0.5321 -0.3638
19269SOL    HW159248   1.236   4.401   2.241  0.3487 -1.8331 -0.8133
19269SOL    HW259249   1.327   4.398   2.120  0.5918  0.3187 -0.7336
19270SOL     OW59250   2.141   2.133   1.229 -0.1603  0.1328 -0.0526
19270SOL    HW159251   2.208   2.069   1.252 -1.8682 -1.3329  1.1544
19270SOL    HW259252   2.109   2.104   1.143 -0.6853 -0.4635  0.3317
19271SOL     OW59253   6.947   4.658   3.115 -0.0689 -0.1875 -0.2443
19271SOL    HW159254   7.030   4.655   3.164  0.4241 -2.7695 -1.0698
19271SOL    HW259255   6.973   4.684   3.027 -0.2852 -0.0079 -0.2542
19272SOL     OW59256   5.907   5.767   0.363 -0.0202  0.6935 -0.0643
19272SOL    HW159257   5.937   5.855   0.384  1.0675  0.4729 -0.6243
19272SOL    HW259258   5.923   5.759   0.269  1.2859 -0.6204  0.2409
19273SOL     OW59259   0.729   6.528   6.347  0.2296 -0.6876  0.4200
19273SOL    HW159260   0.734   6.620   6.374  2.5563 -0.4216 -0.7478
19273SOL    HW259261   0.776   6.524   6.264 -0.3350 -2.8485  0.1470
19274SOL     OW59262   1.478   1.351   7.847 -0.6111  0.7817  0.1559
19274SOL    HW159263   1.560   1.374   7.805 -1.0099  0.8168 -0.6106
19274SOL    HW259264   1.475   1.406   7.925  0.5755  0.0405  0.7540
19275SOL     OW59265   2.326   0.130   4.010  0.0051 -0.1338  0.3979
19275SOL    HW159266   2.373   0.210   4.031 -1.3138  0.2852  2.0145
19275SOL    HW259267   2.248   0.160   3.963  0.5237 -0.6629 -0.8147
19276SOL     OW59268   4.645   1.939   6.887 -0.0402 -0.0111 -0.3135
19276SOL    HW159269   4.730   1.909   6.857 -0.9065 -1.5556 -1.3577
19276SOL    HW259270   4.641   2.031   6.861  0.7515 -0.3082 -1.5584
19277SOL     OW59271   2.813   1.893   9.105 -0.1557  0.7441  0.1744
19277SOL    HW159272   2.785   1.803   9.090  0.8773  0.7535 -2.1804
19277SOL    HW259273   2.734   1.946   9.089 -0.0620  0.4321 -1.4762
19278SOL     OW59274   5.183   1.479   8.361  0.2891 -0.0494 -0.0937
19278SOL    HW159275   5.124   1.539   8.408 -1.2644 -0.9858 -0.7665
19278SOL    HW259276   5.203   1.411   8.425  0.9674  0.4829  0.2608
19279SOL     OW59277   5.022   6.732   7.744  0.9437  0.6361 -0.0137
19279SOL    HW159278   5.115   6.740   7.760  0.6402  1.8732  1.2634
19279SOL    HW259279   4.983   6.809   7.784 -0.8002 -0.6444  0.8940
19280SOL     OW59280   1.299   4.346   0.794 -0.7238 -0.5534 -0.2143
19280SOL    HW159281   1.361   4.391   0.851 -1.3039  0.5582 -0.4278
19280SOL    HW259282   1.232   4.412   0.776 -2.1159 -1.8017  0.2332
19281SOL     OW59283   6.439   0.853   7.636 -0.2469 -0.8168  0.2267
19281SOL    HW159284   6.472   0.940   7.614  2.7838 -1.7551  0.5472
19281SOL    HW259285   6.385   0.828   7.561 -0.5107  0.9619 -0.2378
19282SOL     OW59286   7.859   5.344  12.032  0.1681 -0.5888  0.2564
19282SOL    HW159287   7.940   5.314  11.990 -0.9207  0.2878 -2.7151
19282SOL    HW259288   7.865   5.439  12.029  0.2842 -0.4476  2.8081
19283SOL     OW59289   2.152   3.240   5.469  0.4959  0.4466 -0.0895
19283SOL    HW159290   2.152   3.333   5.489  3.4554  0.7159 -0.9145
19283SOL    HW259291   2.117   3.235   5.380 -0.6019  0.6150  0.3134
19284SOL     OW59292   0.128   0.053   7.934  0.1059 -0.6660 -0.4581
19284SOL    HW159293   0.065   0.091   7.996 -0.2132 -0.6579 -0.7875
19284SOL    HW259294   0.104   0.090   7.849 -0.6193 -2.0899 -0.9005
19285SOL     OW59295   2.014   6.380   6.435  0.4762  0.4678  0.5287
19285SOL    HW159296   1.929   6.367   6.392  1.0142  0.3821 -0.5477
19285SOL    HW259297   2.039   6.293   6.466  0.8385  0.2042 -0.4629
19286SOL     OW59298   6.151   5.584  11.134 -0.2289 -0.4463 -0.2855
19286SOL    HW159299   6.084   5.632  11.087 -0.5061 -0.4546  0.0978
19286SOL    HW259300   6.105   5.542  11.206  0.2328 -0.2039  0.1620
19287SOL     OW59301   3.052   7.231   9.554  0.1205  0.1006  0.5139
19287SOL    HW159302   3.131   7.199   9.599  0.9703  1.7324  0.2373
19287SOL    HW259303   3.001   7.273   9.623 -0.1096 -0.2028  0.5308
19288SOL     OW59304   7.847   6.699  11.544 -0.0330 -0.3398 -0.6348
19288SOL    HW159305   7.897   6.753  11.605  0.5317 -1.2871 -0.2274
19288SOL    HW259306   7.812   6.628  11.599 -0.7018 -0.4350 -1.1668
19289SOL     OW59307   7.576   1.065   4.146  0.8400 -0.1348  0.6549
19289SOL    HW159308   7.580   1.119   4.225  1.5137 -1.0338  1.2481
19289SOL    HW259309   7.483   1.062   4.124  0.6799  0.3712  1.2280
19290SOL     OW59310   6.224   2.720   6.404  0.4617  0.0145  0.1096
19290SOL    HW159311   6.186   2.669   6.332 -0.3886 -1.3873  1.4782
19290SOL    HW259312   6.149   2.759   6.448  0.9818  0.9726  0.1702
19291SOL     OW59313   0.336   6.256   9.477  0.3875 -0.1024  0.0107
19291SOL    HW159314   0.297   6.342   9.460 -1.7302 -1.2247 -1.2304
19291SOL    HW259315   0.429   6.266   9.453  0.1380  1.7531 -0.2979
19292SOL     OW59316   1.438   6.471   5.088  0.1628  0.2925  0.5935
19292SOL    HW159317   1.480   6.441   5.007 -0.9822 -1.0008  0.4271
19292SOL    HW259318   1.511   6.490   5.147  1.0075 -0.3613 -0.1973
19293SOL     OW59319   4.934   0.878  11.894  0.3878 -0.5327  0.0200
19293SOL    HW159320   4.968   0.846  11.978  0.4716 -1.8402 -0.4888
19293SOL    HW259321   4.986   0.834  11.828 -0.4291 -0.3969 -0.7437
19294SOL     OW59322   0.358   0.200   7.951 -0.5148  0.1330  0.7969
19294SOL    HW159323   0.271   0.203   7.910 -1.6843 -2.6405  2.7668
19294SOL    HW259324   0.362   0.280   8.003 -1.4200  0.8455 -0.1802
19295SOL     OW59325   6.497   4.599   9.474 -0.3722  0.5905  0.4584
19295SOL    HW159326   6.491   4.684   9.431  0.5467  0.1705 -0.5718
19295SOL    HW259327   6.546   4.616   9.554 -1.8423  1.3357  1.2331
19296SOL     OW59328   0.223   5.106   2.672  0.0064  0.0113 -0.2918
19296SOL    HW159329   0.146   5.054   2.694 -0.0682  1.1041  2.4392
19296SOL    HW259330   0.191   5.176   2.616 -0.8332 -0.0402  0.1172
19297SOL     OW59331   2.889   4.439   5.224  0.0949  0.1309  0.0845
19297SOL    HW159332   2.975   4.460   5.261  0.9474 -2.1769 -0.4182
19297SOL    HW259333   2.898   4.460   5.131  0.6593 -1.4314 -0.2507
19298SOL     OW59334   6.385   5.990  10.589  0.3835  0.0312  0.3309
19298SOL    HW159335   6.383   6.004  10.684 -1.4965  0.0729  0.3384
19298SOL    HW259336   6.309   6.038  10.557 -0.1884 -1.6245 -0.9383
19299SOL     OW59337   6.796   6.402   0.636 -0.8914 -0.2843  0.0922
19299SOL    HW159338   6.812   6.494   0.616  1.2367 -0.5365  0.3626
19299SOL    HW259339   6.712   6.401   0.682 -0.0051  1.8018  1.9484
19300SOL     OW59340   1.839   3.322   0.394  0.0767  0.7310 -0.0169
19300SOL    HW159341   1.893   3.389   0.353 -1.4253  1.6587 -0.5496
19300SOL    HW259342   1.764   3.312   0.335 -0.9325  0.3443  1.2801
19301SOL     OW59343   7.242   6.864   4.565 -0.1997 -0.5729  0.0013
19301SOL    HW159344   7.330   6.835   4.541 -0.3432 -2.5029  1.5586
19301SOL    HW259345   7.187   6.786   4.554 -1.3291  0.0442  0.9999
19302SOL     OW59346   1.406   0.346   9.450  0.2545  0.2000  0.0993
19302SOL    HW159347   1.381   0.427   9.405  1.1455  0.5999  0.3001
19302SOL    HW259348   1.342   0.282   9.420  0.1906  0.7145 -0.9234
19303SOL     OW59349   5.622   2.433  10.622  0.0107  0.2937 -0.3812
19303SOL    HW159350   5.581   2.367  10.565 -1.0775  0.3326  0.3325
19303SOL    HW259351   5.696   2.388  10.662 -0.3988 -0.3327 -0.3194
19304SOL     OW59352   0.396   1.907   6.978  0.4491 -0.0749 -0.3205
19304SOL    HW159353   0.397   1.812   6.987  1.1265  0.0064  0.6066
19304SOL    HW259354   0.467   1.926   6.917 -0.1727 -0.2109 -1.0926
19305SOL     OW59355   3.014   5.062  10.139  0.5013  0.1001  0.0611
19305SOL    HW159356   3.003   4.977  10.181 -1.4548 -0.1018 -0.7383
19305SOL    HW259357   2.971   5.124  10.198 -0.8324  0.0435 -0.7945
19306SOL     OW59358   7.619   5.804   0.526 -0.0925  0.2055  0.0006
19306SOL    HW159359   7.574   5.816   0.443 -1.2346  1.0471  0.7201
19306SOL    HW259360   7.663   5.888   0.542  0.1383  0.0419  0.2338
19307SOL     OW59361   0.103   5.982   1.963  0.1443 -0.2301 -0.9740
19307SOL    HW159362   0.073   5.928   2.036  1.0904 -0.1149 -0.4832
19307SOL    HW259363   0.185   5.942   1.935  2.3183  2.3502  1.1281
19308SOL     OW59364   0.498   4.024   8.009  0.4580 -0.0328  0.4311
19308SOL    HW159365   0.477   3.987   8.094 -0.3235 -2.4633 -0.7400
19308SOL    HW259366   0.590   4.002   7.995  0.1773 -0.9768  0.0247
19309SOL     OW59367   6.598   4.187   6.374 -0.5744  0.1097  0.2796
19309SOL    HW159368   6.631   4.140   6.297  0.0122  2.7781 -1.2176
19309SOL    HW259369   6.651   4.267   6.378 -2.1596  1.1556  2.0687
19310SOL     OW59370   3.824   2.462   4.443 -0.2073  0.5340  0.5150
19310SOL    HW159371   3.771   2.538   4.421 -1.5426 -0.3537  0.5466
19310SOL    HW259372   3.909   2.479   4.401 -0.5366  1.9267  0.3640
19311SOL     OW59373   1.384   6.812   0.251  0.0515 -0.0135  0.0958
19311SOL    HW159374   1.350   6.723   0.244 -0.6244  0.2244  0.2480
19311SOL    HW259375   1.471   6.802   0.291  0.5752 -0.7131 -1.1471
19312SOL     OW59376   5.020   0.463  10.875  0.1529  0.0138  0.0304
19312SOL    HW159377   5.070   0.428  10.801  1.1511  0.0900  0.6517
19312SOL    HW259378   5.065   0.430  10.952 -0.4486  0.5302  0.6118
19313SOL     OW59379   5.157   7.122   2.654 -0.1612 -0.3825 -0.2402
19313SOL    HW159380   5.108   7.067   2.593 -1.2879  0.6352 -0.3006
19313SOL    HW259381   5.122   7.099   2.740 -2.0373  1.5144 -0.4150
19314SOL     OW59382   3.238   7.084   0.038  0.1725  0.3029 -0.2428
19314SOL    HW159383   3.280   7.143   0.101  2.0477 -0.8022 -0.3925
19314SOL    HW259384   3.167   7.043   0.088  1.6445 -0.5850  1.2169
19315SOL     OW59385   3.773   3.773  11.167 -0.4909 -0.9335 -0.1072
19315SOL    HW159386   3.743   3.814  11.086 -1.0907  1.0701  1.0571
19315SOL    HW259387   3.707   3.796  11.232  0.8816 -0.9212  1.3538
19316SOL     OW59388   0.816   2.536   4.222 -0.5483 -0.1105  0.0067
19316SOL    HW159389   0.782   2.621   4.249 -0.8394  1.0716 -3.5875
19316SOL    HW259390   0.748   2.499   4.165  0.8847 -1.2709 -1.0389
19317SOL     OW59391   3.786   0.931   1.787 -0.0255 -0.5527 -0.1913
19317SOL    HW159392   3.739   1.009   1.814 -0.3385 -1.1063  0.9234
19317SOL    HW259393   3.830   0.901   1.867  0.7048 -1.0857 -0.7850
19318SOL     OW59394   6.745   0.780  12.323 -0.0166  0.1435  0.6107
19318SOL    HW159395   6.826   0.781  12.272 -0.5154  0.5018 -0.2105
19318SOL    HW259396   6.749   0.859  12.377  0.5172 -0.2364  1.1279
19319SOL     OW59397   4.545   0.019   5.236  0.2137  0.1827 -0.5528
19319SOL    HW159398   4.515   0.086   5.175  0.4125  1.0257  0.2694
19319SOL    HW259399   4.624   0.055   5.276 -0.7491  0.3180  1.3359
19320SOL     OW59400   2.794   7.357   1.351 -0.2889 -0.2944 -0.0468
19320SOL    HW159401   2.730   7.305   1.302 -1.2847 -1.2908  2.2005
19320SOL    HW259402   2.778   7.447   1.321 -3.4148 -0.3590  1.0029
19321SOL     OW59403   6.110   4.687   3.989 -1.0312  0.0793  0.1449
19321SOL    HW159404   6.025   4.642   3.989 -0.8300 -0.3150  0.7354
19321SOL    HW259405   6.124   4.713   3.898 -0.5868 -2.1344 -0.4704
19322SOL     OW59406   2.895   5.874   6.743  0.0926 -0.3688  0.3612
19322SOL    HW159407   2.843   5.864   6.822 -1.8554  1.5599 -0.5732
19322SOL    HW259408   2.845   5.829   6.675  1.3167 -1.2661  0.0141
19323SOL     OW59409   0.757   7.479   6.451  0.3089  0.0887 -0.3364
19323SOL    HW159410   0.771   7.386   6.433  1.9714  0.2264  0.0623
19323SOL    HW259411   0.825   7.502   6.513  0.0561  1.6291 -0.5865
19324SOL     OW59412   0.095   3.867   7.758 -0.2115 -0.3935  0.4083
19324SOL    HW159413   0.160   3.834   7.697 -0.8678 -1.9781  0.5342
19324SOL    HW259414   0.133   3.949   7.791  0.7254 -0.1605 -1.1277
19325SOL     OW59415   1.794   5.538   7.621 -0.3034 -0.4290 -0.8728
19325SOL    HW159416   1.861   5.469   7.618  2.3287  1.8328  0.6590
19325SOL    HW259417   1.794   5.567   7.712 -1.4195  1.5006 -1.4357
19326SOL     OW59418   4.385   4.628   0.182  0.3834  0.5936 -0.0378
19326SOL    HW159419   4.311   4.615   0.241  0.3662  1.4057  0.1234
19326SOL    HW259420   4.350   4.682   0.111  0.8819  1.1728  0.1586
19327SOL     OW59421   0.699   2.906   3.857  0.3221  0.5931 -0.4097
19327SOL    HW159422   0.624   2.930   3.912 -0.6068 -0.5665 -1.1209
19327SOL    HW259423   0.748   2.988   3.846 -1.3069  1.5852 -0.6526
19328SOL     OW59424   5.888   5.032   7.392 -0.4168 -0.0730 -0.1008
19328SOL    HW159425   5.834   4.962   7.353 -0.9905 -0.2181  0.9190
19328SOL    HW259426   5.976   4.995   7.396  0.0184  0.4925 -2.6449
19329SOL     OW59427   2.799   0.355  10.510  0.1829 -0.7768 -0.1230
19329SOL    HW159428   2.712   0.340  10.472  0.7076 -0.0270 -1.6532
19329SOL    HW259429   2.806   0.450  10.517  0.8235 -0.8416  0.1699
19330SOL     OW59430   4.467   1.029   9.971  0.0830  0.0696  0.0367
19330SOL    HW159431   4.484   0.935   9.959 -0.5773 -0.0975  0.3544
19330SOL    HW259432   4.510   1.051  10.054  0.8855  0.2278 -0.4096
19331SOL     OW59433   4.760   1.656   3.152  0.1968 -0.2877  0.2895
19331SOL    HW159434   4.808   1.574   3.155 -0.2441 -0.5791 -0.4329
19331SOL    HW259435   4.729   1.670   3.242  2.1274  0.2249  0.9316
19332SOL     OW59436   4.177   1.768   0.305 -0.4008  0.3184  0.1573
19332SOL    HW159437   4.260   1.799   0.341 -1.7724  2.2817  1.8581
19332SOL    HW259438   4.183   1.786   0.211  1.1126  0.3509  0.2459
19333SOL     OW59439   6.426   2.425   9.272  0.0378 -0.4417 -0.0393
19333SOL    HW159440   6.444   2.398   9.362  0.5379 -0.1128 -0.0392
19333SOL    HW259441   6.330   2.425   9.266  0.0149 -1.1599  0.2758
19334SOL     OW59442   5.919   1.961   0.238  0.2121  0.1227  0.5696
19334SOL    HW159443   6.005   1.976   0.277  1.3130  0.5243 -1.8525
19334SOL    HW259444   5.882   2.049   0.228  0.7853  0.2226 -0.9854
19335SOL     OW59445   7.428   6.106   9.212 -0.2677 -0.4600  0.1205
19335SOL    HW159446   7.374   6.165   9.159 -2.1677  0.3166  2.6830
19335SOL    HW259447   7.368   6.037   9.241  0.9334 -1.3984  0.4580
19336SOL     OW59448   2.125   7.682  12.022  0.1496  0.4741  0.2173
19336SOL    HW159449   2.165   7.756  11.976 -0.2785  0.4406 -0.2167
19336SOL    HW259450   2.038   7.674  11.983  0.5329 -0.8765 -0.4182
19337SOL     OW59451   5.634   3.169   0.696 -0.3966  0.0420 -0.2053
19337SOL    HW159452   5.602   3.165   0.786 -0.5665 -0.6248 -0.2893
19337SOL    HW259453   5.704   3.105   0.693  0.5587  1.0536 -0.1896
19338SOL     OW59454   1.459   3.434  12.109  0.0619  0.0880 -0.1311
19338SOL    HW159455   1.511   3.409  12.185  1.5286  2.2504 -0.3153
19338SOL    HW259456   1.400   3.360  12.094  2.9796 -2.5037  0.1860
19339SOL     OW59457   0.656   1.133   3.913  0.0450  0.1352  0.2691
19339SOL    HW159458   0.587   1.079   3.875 -0.6444  0.3726  1.1633
19339SOL    HW259459   0.690   1.081   3.986  1.9894 -0.7235 -1.1520
19340SOL     OW59460   6.658   3.030   0.843 -0.0203  0.2721 -0.2714
19340SOL    HW159461   6.695   2.943   0.827  1.2740  0.5521  0.9628
19340SOL    HW259462   6.690   3.084   0.770 -0.6034 -0.2047 -0.8916
19341SOL     OW59463   1.785   3.431   7.369 -0.0353  0.2816  0.2300
19341SOL    HW159464   1.718   3.499   7.373  2.0064  2.5173 -0.4949
19341SOL    HW259465   1.813   3.420   7.459 -0.9453 -0.2320  0.4600
19342SOL     OW59466   4.398   0.434   2.528 -0.0926 -0.5739 -0.1916
19342SOL    HW159467   4.471   0.372   2.535 -0.1821 -0.6324  0.2414
19342SOL    HW259468   4.368   0.425   2.438 -0.3908 -1.4796 -0.0131
19343SOL     OW59469   0.509   6.411   8.993  0.2360 -0.3949 -0.6231
19343SOL    HW159470   0.526   6.361   8.913  1.2525 -2.5098  0.8174
19343SOL    HW259471   0.587   6.397   9.047  0.8267  3.2474 -0.2525
19344SOL     OW59472   7.526   0.010  10.286  0.5122 -0.4808 -0.0035
19344SOL    HW159473   7.513   0.068  10.361 -2.0790 -0.5762 -0.2805
19344SOL    HW259474   7.469   0.046  10.218  0.1548 -2.3584 -0.7480
19345SOL     OW59475   0.524   6.910   3.399 -0.3532  0.0011 -0.5485
19345SOL    HW159476   0.484   6.826   3.380  0.4247 -0.5293  0.0706
19345SOL    HW259477   0.498   6.967   3.326 -2.6367 -0.1353  0.0770
19346SOL     OW59478   5.352   6.460  11.978 -0.3796 -0.2341  0.6041
19346SOL    HW159479   5.334   6.504  11.895 -1.6335  0.7091  1.3301
19346SOL    HW259480   5.419   6.514  12.019  0.3377 -0.7759  0.1604
19347SOL     OW59481   6.783   7.231  11.144 -0.0562  0.0499  0.0641
19347SOL    HW159482   6.772   7.189  11.059 -3.6026 -0.8865  0.8401
19347SOL    HW259483   6.808   7.321  11.123  0.6838 -0.5579 -1.8604
19348SOL     OW59484   3.354   7.265   3.461 -0.5894  0.2782 -0.2149
19348SOL    HW159485   3.262   7.255   3.484 -0.6289  1.2604  0.0730
19348SOL    HW259486   3.370   7.196   3.396 -1.1975 -0.7121  0.6603
19349SOL     OW59487   4.652   1.250   6.449  0.5957 -0.5980 -0.8436
19349SOL    HW159488   4.657   1.250   6.354  2.0296  1.6903 -0.8217
19349SOL    HW259489   4.629   1.159   6.472  0.1463 -1.1715 -3.3299
19350SOL     OW59490   0.915   4.384   6.917 -0.1728 -0.2968  0.3584
19350SOL    HW159491   0.989   4.334   6.881  0.2305 -0.1081  0.9113
19350SOL    HW259492   0.936   4.394   7.010 -0.8016 -0.0696  0.4778
19351SOL     OW59493   0.832   3.632   8.929 -0.3025 -0.2432 -0.1141
19351SOL    HW159494   0.852   3.637   8.835 -1.6388  0.8962 -0.3512
19351SOL    HW259495   0.875   3.708   8.967  0.2055 -0.6834  0.2202
19352SOL     OW59496   6.559   4.656   2.648  0.2983  0.4983 -0.3546
19352SOL    HW159497   6.583   4.650   2.740  0.5280  1.2307 -0.3599
19352SOL    HW259498   6.602   4.582   2.606 -0.6457 -0.4394  0.2973
19353SOL     OW59499   2.320   7.758   0.958  0.2746 -0.6159  0.2860
19353SOL    HW159500   2.361   7.688   0.907 -1.8656 -0.7737 -1.3354
19353SOL    HW259501   2.327   7.835   0.902  1.3052  0.1701  1.4416
19354SOL     OW59502   3.419   0.307   6.918 -0.8260  0.2561 -0.4242
19354SOL    HW159503   3.336   0.277   6.881 -0.9336  2.3384 -2.1110
19354SOL    HW259504   3.396   0.386   6.966  0.1900  1.1471 -1.3299
19355SOL     OW59505   0.561   4.664  10.018  0.4100 -0.0447 -0.2531
19355SOL    HW159506   0.609   4.633  10.095  1.7130  0.2262 -0.9243
19355SOL    HW259507   0.618   4.642   9.944  0.2553  1.7280 -0.9479
19356SOL     OW59508   3.107   1.632   5.520  0.1772  0.3881  0.1385
19356SOL    HW159509   3.041   1.701   5.524 -1.1444 -0.7633 -0.6382
19356SOL    HW259510   3.160   1.653   5.443 -0.5636  0.2582 -0.4187
19357SOL     OW59511   3.306   4.743   3.758 -0.0030  0.2651  0.3009
19357SOL    HW159512   3.338   4.661   3.722 -0.7774  0.1588 -0.1791
19357SOL    HW259513   3.342   4.747   3.847 -0.1791 -0.7238  0.4201
19358SOL     OW59514   5.692   0.297   3.512 -0.8287  0.6626  0.7018
19358SOL    HW159515   5.767   0.255   3.555 -1.1910  0.4212  1.1167
19358SOL    HW259516   5.630   0.314   3.584 -1.3102  0.5508  0.3220
19359SOL     OW59517   7.682   3.246  11.084 -0.2414 -0.4627 -0.4142
19359SOL    HW159518   7.704   3.166  11.036 -1.5003 -1.1479  0.0966
19359SOL    HW259519   7.697   3.317  11.021  2.3845 -0.9084 -0.4068
19360SOL     OW59520   1.938   0.821   9.300 -0.3603 -0.2998 -0.2246
19360SOL    HW159521   2.000   0.813   9.373 -2.2111 -0.1306  1.4381
19360SOL    HW259522   1.940   0.914   9.278 -0.2334 -0.2387  0.0286
19361SOL     OW59523   1.005   4.265   0.923 -0.2113 -0.0960  0.8041
19361SOL    HW159524   1.032   4.348   0.884 -0.0356  0.8790  2.8513
19361SOL    HW259525   0.911   4.273   0.934  0.0935  0.9836  3.3233
19362SOL     OW59526   2.458   6.249   2.645  0.2036 -0.2242  0.6363
19362SOL    HW159527   2.418   6.315   2.588  1.8861 -0.1309 -0.5181
19362SOL    HW259528   2.444   6.281   2.734 -0.9135  0.5557  0.1896
19363SOL     OW59529   2.936   0.493   7.744  0.3392  0.1254  0.2500
19363SOL    HW159530   2.848   0.503   7.709 -0.1597 -0.9868  1.1038
19363SOL    HW259531   2.992   0.480   7.667 -0.3739 -0.0168 -0.2484
19364SOL     OW59532   1.167   3.871   0.791 -0.0288 -0.3652  0.1820
19364SOL    HW159533   1.156   3.800   0.728 -1.1309  0.1227 -0.1964
19364SOL    HW259534   1.157   3.830   0.877 -1.9610 -0.4817 -0.0626
19365SOL     OW59535   0.702   2.995   3.454 -0.1404  0.6404  0.1240
19365SOL    HW159536   0.795   2.990   3.478  0.3866  2.6483 -1.2160
19365SOL    HW259537   0.683   2.910   3.414  0.7857 -0.2147  1.4396
19366SOL     OW59538   5.870   2.459   8.629 -0.4528 -0.4348 -0.3104
19366SOL    HW159539   5.918   2.537   8.657 -0.5595 -0.5935  0.3235
19366SOL    HW259540   5.846   2.477   8.538 -2.0296  1.0670  0.3361
19367SOL     OW59541   6.523   0.240   6.827 -0.6255 -0.1983  0.4818
19367SOL    HW159542   6.476   0.256   6.909 -0.4457  0.4079  0.4727
19367SOL    HW259543   6.613   0.221   6.854 -0.6953 -0.5844  0.4539
19368SOL     OW59544   3.024   0.829   0.861 -0.5370  0.9341 -0.6591
19368SOL    HW159545   3.119   0.830   0.850 -0.5332 -2.1804 -2.1686
19368SOL    HW259546   3.011   0.826   0.955  0.8939  0.9815 -0.4323
19369SOL     OW59547   6.472   7.907   2.294  0.1881 -0.4811 -0.3277
19369SOL    HW159548   6.402   7.885   2.355  0.4866 -0.1303  0.1420
19369SOL    HW259549   6.525   7.827   2.288  0.6596 -0.2472  0.5530
19370SOL     OW59550   2.548   0.016   5.838 -1.1428 -0.0748  0.0233
19370SOL    HW159551   2.507   0.066   5.909 -0.4869 -1.6363  1.5470
19370SOL    HW259552   2.484  -0.051   5.815 -1.2107  0.2088 -0.6458
19371SOL     OW59553   0.154   4.125   4.885 -0.3492  0.0631  0.0057
19371SOL    HW159554   0.112   4.211   4.883 -2.0327 -0.6629 -3.0706
19371SOL    HW259555   0.111   4.079   4.958 -0.7622  1.2102  0.5094
19372SOL     OW59556   0.841   6.192   1.684 -0.2937 -0.0103 -0.4002
19372SOL    HW159557   0.754   6.227   1.666 -0.8270 -1.6276 -1.1154
19372SOL    HW259558   0.900   6.265   1.664 -1.3343  0.3859 -2.2634
19373SOL     OW59559   2.897   6.112   6.000  0.2670  0.8396 -0.1743
19373SOL    HW159560   2.815   6.077   6.035  0.3076 -0.0154 -0.9018
19373SOL    HW259561   2.965   6.058   6.039  0.4557  1.2342  0.0488
19374SOL     OW59562   0.564   3.873   6.320  0.0880 -0.2793 -0.2907
19374SOL    HW159563   0.655   3.851   6.339  0.2524  0.8644  0.3471
19374SOL    HW259564   0.528   3.794   6.279  1.3917 -0.7096 -0.6548
19375SOL     OW59565   1.937   3.578   8.259  0.0155  0.0169 -0.1398
19375SOL    HW159566   1.924   3.607   8.169 -0.6136 -0.4595 -0.2020
19375SOL    HW259567   2.032   3.585   8.272 -0.0030  1.1743 -0.4587
19376SOL     OW59568   2.785   4.776   1.037 -0.0600 -0.0499 -0.1428
19376SOL    HW159569   2.752   4.864   1.056 -0.5933 -0.3854  0.5222
19376SOL    HW259570   2.880   4.783   1.048  0.0139  0.6736 -1.0759
19377SOL     OW59571   5.301   4.731   6.773  0.8617  0.2167 -0.5876
19377SOL    HW159572   5.315   4.823   6.797  0.4579  0.1211  0.0305
19377SOL    HW259573   5.280   4.734   6.680 -2.6541  1.1428  0.0881
19378SOL     OW59574   6.165   2.231   6.483 -0.2299  0.0263  0.4062
19378SOL    HW159575   6.097   2.198   6.542  1.0965 -2.0176  0.9015
19378SOL    HW259576   6.139   2.200   6.396 -0.5613  0.3204  0.3989
19379SOL     OW59577   0.291   2.889   7.807 -0.8686  0.6895  0.0516
19379SOL    HW159578   0.294   2.977   7.768  0.2648  0.7899  0.3226
19379SOL    HW259579   0.342   2.835   7.747  0.3746  0.7171  1.0488
19380SOL     OW59580   3.938   3.190  10.446 -0.2885 -1.0214 -0.4049
19380SOL    HW159581   3.878   3.265  10.452  2.3341  1.1231  1.7049
19380SOL    HW259582   4.015   3.225  10.401  0.4390 -2.9294 -0.7364
19381SOL     OW59583   4.152   1.779   1.129  0.3871  0.2131  0.1946
19381SOL    HW159584   4.173   1.772   1.036  0.2105  0.3791  0.1407
19381SOL    HW259585   4.166   1.871   1.151 -1.6012  0.6503 -0.1859
19382SOL     OW59586   2.155   0.984   2.859  0.1338 -0.2602  0.4497
19382SOL    HW159587   2.223   1.040   2.896  0.0502  0.1742 -0.0308
19382SOL    HW259588   2.073   1.031   2.877 -0.0001 -0.5730  0.6596
19383SOL     OW59589   4.084   4.155   0.517 -0.1810  0.7909  1.0840
19383SOL    HW159590   3.989   4.142   0.522 -0.2013 -0.3766 -1.1993
19383SOL    HW259591   4.120   4.067   0.517  0.9881  1.2402  2.5181
19384SOL     OW59592   5.987   5.168   1.510  0.1802 -0.5875 -0.1642
19384SOL    HW159593   6.031   5.213   1.582 -1.0012  1.9174 -0.8905
19384SOL    HW259594   5.939   5.097   1.552  1.7446 -0.9262  1.1255
19385SOL     OW59595   6.816   2.110   9.076  0.3390 -0.1317  0.4074
19385SOL    HW159596   6.888   2.047   9.081 -0.0128 -0.6332 -0.3936
19385SOL    HW259597   6.776   2.092   8.990  1.1585  2.2138 -0.5538
19386SOL     OW59598   4.721   7.003   7.962  0.4239  0.0554 -0.0278
19386SOL    HW159599   4.749   7.075   8.019  1.7766 -0.7200  0.3291
19386SOL    HW259600   4.801   6.953   7.946 -0.2397 -0.6285 -1.3492
19387SOL     OW59601   0.859   0.008   6.407 -0.7503 -0.3870 -0.5455
19387SOL    HW159602   0.946   0.013   6.446 -0.1369  1.2494 -2.0154
19387SOL    HW259603   0.849  -0.084   6.382  1.2049 -0.3144 -1.7341
19388SOL     OW59604   7.913   6.758   9.937 -0.1907 -0.3076 -0.0504
19388SOL    HW159605   7.888   6.848   9.958  2.8675  0.5828  0.1443
19388SOL    HW259606   7.919   6.714  10.022 -0.3502 -0.3198 -0.0447
19389SOL     OW59607   1.086   0.389   1.603  0.4310 -0.3719 -0.3182
19389SOL    HW159608   1.124   0.324   1.544  0.0784 -0.8817  0.0023
19389SOL    HW259609   1.110   0.359   1.691 -1.3318 -1.1605 -0.0539
19390SOL     OW59610   7.362   3.425   6.814  0.0184  0.9726  0.1796
19390SOL    HW159611   7.361   3.503   6.758  1.1136  0.5187 -0.5185
19390SOL    HW259612   7.411   3.360   6.764 -0.0228  0.1482  1.1654
19391SOL     OW59613   0.346   6.386  12.119  0.2341  0.1123 -0.2601
19391SOL    HW159614   0.345   6.330  12.041 -2.3653 -0.5375  0.1228
19391SOL    HW259615   0.389   6.334  12.186  1.4429  0.2092 -0.9468
19392SOL     OW59616   0.784   4.965   0.362  0.1542  0.1197  0.2559
19392SOL    HW159617   0.835   4.942   0.285 -0.7982  0.8308 -0.6213
19392SOL    HW259618   0.819   4.910   0.432  2.4859  0.9820 -0.1366
19393SOL     OW59619   2.002   3.808  11.270  0.0769  0.2056  0.2017
19393SOL    HW159620   2.094   3.790  11.292  0.1099 -1.1720 -0.9497
19393SOL    HW259621   2.006   3.860  11.190 -0.1369  2.3607  1.4897
19394SOL     OW59622   1.542   0.013  10.811  0.4125 -0.0281  0.0750
19394SOL    HW159623   1.585   0.097  10.829 -2.4693  1.6954 -0.5287
19394SOL    HW259624   1.610  -0.039  10.768  2.5222  1.6569  1.1195
19395SOL     OW59625   4.469   7.545  11.042 -0.5060 -0.1954 -0.2169
19395SOL    HW159626   4.423   7.624  11.072  0.4442  0.7612 -1.1820
19395SOL    HW259627   4.458   7.482  11.113 -1.2653  0.8159  0.5944
19396SOL     OW59628   5.164   1.269   4.225 -0.6835 -0.7765 -0.1039
19396SOL    HW159629   5.092   1.227   4.273 -1.3139 -1.0800 -1.2834
19396SOL    HW259630   5.188   1.205   4.157  0.1867 -0.3508 -0.2071
19397SOL     OW59631   1.898   4.770   0.930  0.0152 -0.5784 -0.0898
19397SOL    HW159632   1.856   4.848   0.893 -1.1511 -0.8203  0.6642
19397SOL    HW259633   1.885   4.702   0.863 -2.2210 -1.0554  0.7251
19398SOL     OW59634   3.486   6.760  12.215  0.3793 -0.0431 -0.0248
19398SOL    HW159635   3.452   6.849  12.207 -0.0599 -0.3401 -1.8982
19398SOL    HW259636   3.575   6.772  12.250  1.3010  1.3918 -2.5598
19399SOL     OW59637   0.591   6.561   5.140  0.4558  0.2035 -0.3694
19399SOL    HW159638   0.634   6.629   5.193  0.2783 -1.0758  1.5126
19399SOL    HW259639   0.511   6.540   5.188  0.3084 -1.0524 -1.1299
19400SOL     OW59640   3.346   2.441   1.773 -0.3480 -0.1572 -0.0010
19400SOL    HW159641   3.320   2.352   1.751 -1.3919  0.0250  0.4293
19400SOL    HW259642   3.344   2.443   1.869 -0.7829  0.4557 -0.0201
19401SOL     OW59643   4.134   1.656   5.440  0.5022 -0.1253  0.2023
19401SOL    HW159644   4.054   1.695   5.406  1.6003  0.5087 -1.7748
19401SOL    HW259645   4.163   1.716   5.508 -0.6089 -0.3133  0.8779
19402SOL     OW59646   0.326   0.738   4.180  0.7582 -0.3726 -0.3048
19402SOL    HW159647   0.251   0.786   4.215  0.2798 -0.9392 -0.5118
19402SOL    HW259648   0.288   0.656   4.148  1.3820 -0.4256 -0.9357
19403SOL     OW59649   1.893   7.087   1.222 -0.3291 -0.2338 -0.1635
19403SOL    HW159650   1.876   6.996   1.247 -0.1057 -0.3434 -0.4104
19403SOL    HW259651   1.987   7.090   1.206  0.0609  0.5418  1.9097
19404SOL     OW59652   3.013   6.947   6.135 -0.5116  0.0790  0.1283
19404SOL    HW159653   2.994   7.006   6.208  0.0550 -0.6322  0.8723
19404SOL    HW259654   2.935   6.951   6.080 -0.9138  0.6911  0.7248
19405SOL     OW59655   7.666   0.123  11.500 -0.0712 -0.0176 -0.0794
19405SOL    HW159656   7.648   0.211  11.532  2.0680  1.4351 -2.4941
19405SOL    HW259657   7.691   0.074  11.579  1.0317  2.2011  1.0547
19406SOL     OW59658   7.878   4.216   3.246  0.5030  0.5401 -0.0948
19406SOL    HW159659   7.941   4.286   3.256  1.1888 -0.3087  2.0405
19406SOL    HW259660   7.793   4.256   3.265  0.9812  0.6626  1.9820
19407SOL     OW59661   6.932   7.812   1.890  0.2289 -0.3489 -0.3546
19407SOL    HW159662   6.873   7.740   1.910 -0.3035  0.2633  0.3145
19407SOL    HW259663   7.012   7.791   1.938 -0.6761  0.5796  1.6829
19408SOL     OW59664   2.402   6.466   2.444 -0.3147 -0.7635  0.0252
19408SOL    HW159665   2.443   6.460   2.358 -0.9039  0.4768 -0.3670
19408SOL    HW259666   2.414   6.557   2.470 -0.7691 -0.9556  0.9399
19409SOL     OW59667   4.581   3.158   7.674  0.3022  0.1635  0.1302
19409SOL    HW159668   4.600   3.238   7.625 -0.6443  1.1092  1.2365
19409SOL    HW259669   4.663   3.136   7.718 -0.1299  2.2623  2.1750
19410SOL     OW59670   1.361   0.942   7.972 -0.2024  0.3043 -0.3178
19410SOL    HW159671   1.403   0.977   7.893  0.2456 -0.1003 -0.2555
19410SOL    HW259672   1.417   0.971   8.044 -1.0108  1.3242 -0.0595
19411SOL     OW59673   2.374   1.947   5.174  0.1252  0.0269 -0.0710
19411SOL    HW159674   2.337   1.883   5.113  0.3597 -0.1580 -0.0202
19411SOL    HW259675   2.299   2.000   5.202  0.1804  0.8921 -1.4418
19412SOL     OW59676   3.689   0.408   0.314  0.3985  0.0050  0.0847
19412SOL    HW159677   3.610   0.456   0.287 -0.5584 -0.9931  1.0384
19412SOL    HW259678   3.725   0.459   0.386  0.3665  0.2085 -0.0419
19413SOL     OW59679   2.583   5.258   3.071  0.6076 -0.0522 -0.1935
19413SOL    HW159680   2.576   5.307   3.153  1.4291 -0.6992  0.2856
19413SOL    HW259681   2.605   5.323   3.005 -1.4958  0.7222 -0.2073
19414SOL     OW59682   6.056   4.131   7.724 -0.4795  0.0300 -0.4918
19414SOL    HW159683   6.094   4.209   7.764  0.8955 -0.1585 -1.3680
19414SOL    HW259684   5.968   4.124   7.763  1.1348 -0.8696  3.5127
19415SOL     OW59685   7.519   0.628  11.158  0.6721  0.0688  0.6200
19415SOL    HW159686   7.445   0.684  11.139  0.9860  0.2485 -0.0998
19415SOL    HW259687   7.481   0.549  11.197  0.0827  0.0408 -0.0070
19416SOL     OW59688   2.037   2.754  10.504  0.5660  0.0361  0.4567
19416SOL    HW159689   1.988   2.709  10.572 -0.0577 -0.8053 -0.5242
19416SOL    HW259690   2.128   2.753  10.536  0.3566 -0.7469  1.0728
19417SOL     OW59691   2.144   4.615   5.633  0.2540  0.3537 -0.0650
19417SOL    HW159692   2.080   4.577   5.695  2.6907 -1.3700  1.5798
19417SOL    HW259693   2.197   4.540   5.605  0.7245  1.5085 -2.4731
19418SOL     OW59694   6.778   3.299   1.854  0.6125 -0.0288  0.0210
19418SOL    HW159695   6.865   3.269   1.880  0.0316 -0.8634  1.0911
19418SOL    HW259696   6.761   3.375   1.909  1.3171  1.1821 -1.3683
19419SOL     OW59697   5.858   4.611   0.779 -0.8065 -0.1676 -0.0605
19419SOL    HW159698   5.921   4.542   0.760  0.2784  1.0191 -0.9740
19419SOL    HW259699   5.807   4.578   0.853  0.9142 -1.1453  0.7378
19420SOL     OW59700   0.652   5.035  12.198  0.1476 -0.0845  0.3523
19420SOL    HW159701   0.596   5.042  12.276 -1.2932 -0.6853 -0.5844
19420SOL    HW259702   0.702   5.117  12.198 -0.7782  0.5170  1.2115
19421SOL     OW59703   4.326   6.135  10.065  0.0621 -0.5647 -0.0945
19421SOL    HW159704   4.295   6.216  10.024 -0.0457  0.2592  1.5123
19421SOL    HW259705   4.300   6.144  10.157  0.4052 -2.2630  0.1972
19422SOL     OW59706   0.273   1.572   9.560  0.4782 -0.3956 -0.4914
19422SOL    HW159707   0.192   1.552   9.607  0.4390  0.8105 -0.0114
19422SOL    HW259708   0.246   1.584   9.470 -0.4240  2.8968  0.1053
19423SOL     OW59709   2.912   6.695   2.378  0.1087 -0.4741  0.6688
19423SOL    HW159710   2.855   6.708   2.453  2.2535  1.2476  2.1354
19423SOL    HW259711   2.995   6.663   2.416  0.8571 -0.7615 -1.1023
19424SOL     OW59712   0.807   5.125   1.425  0.2288 -0.4078  0.0305
19424SOL    HW159713   0.812   5.210   1.467 -1.5644 -0.4839  0.5235
19424SOL    HW259714   0.897   5.094   1.419  0.7274  0.6415  1.6882
19425SOL     OW59715   4.977   6.405   4.624  0.0491  0.5107 -0.0491
19425SOL    HW159716   5.032   6.402   4.702  0.6312 -1.0421 -0.4787
19425SOL    HW259717   5.038   6.426   4.553  0.1196 -1.1474 -0.5184
19426SOL     OW59718   4.540   7.852   0.980  0.4709 -0.5356  0.1072
19426SOL    HW159719   4.600   7.894   1.042  0.2411  0.8060 -0.5564
19426SOL    HW259720   4.463   7.831   1.032  0.7788 -0.5846  0.5530
19427SOL     OW59721   7.669   0.289  10.796 -0.4742  0.5004  0.6298
19427SOL    HW159722   7.605   0.253  10.858 -0.0262  0.6790  1.2050
19427SOL    HW259723   7.663   0.384  10.808 -1.5040  0.6475 -0.7352
19428SOL     OW59724   1.456   4.909   0.814  0.2450 -0.0911 -0.4377
19428SOL    HW159725   1.401   4.896   0.737  1.6567 -0.0718 -1.4900
19428SOL    HW259726   1.412   4.860   0.884 -0.2378 -1.4336 -1.6397
19429SOL     OW59727   1.721   0.959   0.590 -0.2027  0.3842 -0.1464
19429SOL    HW159728   1.645   0.903   0.573 -0.2891  0.2056  0.7636
19429SOL    HW259729   1.762   0.921   0.668  0.8561  0.4531 -0.6541
19430SOL     OW59730   6.176   0.969   6.542  0.4281  0.1990 -0.2902
19430SOL    HW159731   6.092   0.936   6.575  0.7526  0.5404  0.9365
19430SOL    HW259732   6.185   0.929   6.456 -1.1727  0.4528 -0.6077
19431SOL     OW59733   0.827   7.357   4.335 -0.1560 -0.3694  0.4280
19431SOL    HW159734   0.798   7.446   4.313 -1.5738 -0.6712  0.9618
19431SOL    HW259735   0.768   7.300   4.286  1.7396 -1.0743 -1.1734
19432SOL     OW59736   0.200   5.067  11.325 -0.0331 -0.0651 -0.1797
19432SOL    HW159737   0.294   5.057  11.335 -0.0740  0.9852  1.7198
19432SOL    HW259738   0.178   5.013  11.249  1.6993 -2.4054  0.8661
19433SOL     OW59739   4.329   0.934   7.486 -0.1757 -0.1599 -0.4128
19433SOL    HW159740   4.282   0.871   7.541  0.9973  0.2347  1.1136
19433SOL    HW259741   4.319   0.901   7.397 -2.5999 -0.5303 -0.0509
19434SOL     OW59742   4.584   7.447   4.793  0.3513  0.3188 -0.0151
19434SOL    HW159743   4.511   7.507   4.809 -0.6008  0.0980 -2.8779
19434SOL    HW259744   4.557   7.397   4.716  2.4901 -1.5528  0.3546
19435SOL     OW59745   0.511   5.322  11.255 -0.1657  0.0109 -0.3203
19435SOL    HW159746   0.554   5.367  11.183 -2.6251  0.9422 -1.2977
19435SOL    HW259747   0.507   5.231  11.228  0.0842  0.1315 -0.7627
19436SOL     OW59748   2.211   2.187   3.327  0.2537  0.3032 -0.0056
19436SOL    HW159749   2.199   2.123   3.397 -0.5058 -0.8149 -1.1070
19436SOL    HW259750   2.197   2.272   3.369 -0.9862 -0.3785  1.0401
19437SOL     OW59751   1.630   0.606   4.787  0.5607  0.1262  0.3967
19437SOL    HW159752   1.645   0.569   4.700  0.6113 -1.1302  0.9199
19437SOL    HW259753   1.575   0.683   4.771  0.1696 -0.3658 -0.7034
19438SOL     OW59754   1.871   6.442   0.378  0.5616  0.4637 -0.2571
19438SOL    HW159755   1.786   6.454   0.335  0.5141  1.3245  0.0556
19438SOL    HW259756   1.918   6.380   0.322 -0.5550 -0.6425 -0.0253
19439SOL     OW59757   1.898   4.619   7.510 -0.0812 -0.4727  0.1266
19439SOL    HW159758   1.880   4.572   7.591  0.1900  1.0792  1.1439
19439SOL    HW259759   1.832   4.689   7.508 -0.4130 -0.8000 -1.2671
19440SOL     OW59760   4.990   1.718  11.167  0.1415  0.1938  0.3159
19440SOL    HW159761   5.059   1.781  11.188  0.0490  0.5005 -0.2787
19440SOL    HW259762   5.029   1.660  11.102 -0.2499  0.5336 -0.2218
19441SOL     OW59763   7.894   4.622   6.310  0.3453 -0.0572 -0.0628
19441SOL    HW159764   7.961   4.601   6.246  0.4496 -1.3425  0.4468
19441SOL    HW259765   7.899   4.717   6.320  1.5652 -0.0549 -0.6020
19442SOL     OW59766   7.595   1.117   5.342 -0.4784  0.4390  0.4228
19442SOL    HW159767   7.664   1.155   5.395 -0.8282  0.2897  0.9978
19442SOL    HW259768   7.593   1.170   5.263  0.5301  0.2154  0.2469
19443SOL     OW59769   6.423   2.320   7.801  0.2180 -0.0757 -0.9885
19443SOL    HW159770   6.486   2.382   7.837  0.6334 -0.4858 -0.9985
19443SOL    HW259771   6.459   2.234   7.822 -1.8507 -0.4055  1.7773
19444SOL     OW59772   0.505   5.242   8.107 -0.0198  0.9151 -0.2752
19444SOL    HW159773   0.468   5.163   8.145  0.1558  0.1304 -1.6805
19444SOL    HW259774   0.597   5.222   8.092 -0.2268  0.9495 -1.6990
19445SOL     OW59775   3.928   6.336   0.363  0.0154 -0.3861 -0.2518
19445SOL    HW159776   4.022   6.326   0.370  0.0375  0.7510  1.8374
19445SOL    HW259777   3.906   6.406   0.425 -2.0421  0.3105 -1.6386
19446SOL     OW59778   5.926   2.806  11.294 -0.6796 -0.1303  0.4704
19446SOL    HW159779   6.004   2.763  11.328 -1.7157 -1.0851  1.7509
19446SOL    HW259780   5.878   2.736  11.248 -1.5911  0.0109  1.1727
19447SOL     OW59781   3.747   5.973  12.143 -0.6589  0.8668 -0.1597
19447SOL    HW159782   3.836   6.007  12.146  0.4379 -1.7562 -0.7922
19447SOL    HW259783   3.724   5.974  12.050 -1.6278  2.2286  0.0634
19448SOL     OW59784   3.783   3.338   1.682 -0.2700 -0.2051 -0.1318
19448SOL    HW159785   3.824   3.253   1.669 -0.4979 -0.3709  0.2280
19448SOL    HW259786   3.839   3.399   1.634 -0.6648 -0.6873 -1.2266
19449SOL     OW59787   5.284   2.600   9.044 -0.0603  0.3062 -0.2466
19449SOL    HW159788   5.245   2.575   9.128  0.3161  0.4004 -0.0406
19449SOL    HW259789   5.329   2.682   9.062  3.5993 -1.6324  0.5970
19450SOL     OW59790   2.222   0.333  10.988 -0.2780 -0.2159  0.0786
19450SOL    HW159791   2.282   0.387  11.039  0.7387 -0.7623 -0.5114
19450SOL    HW259792   2.194   0.389  10.915 -0.1202 -0.1139  0.0970
19451SOL     OW59793   6.849   0.122   4.634  0.4034  0.0334  0.2898
19451SOL    HW159794   6.884   0.033   4.630  1.3826  0.4467 -2.0861
19451SOL    HW259795   6.794   0.129   4.556 -0.7567  1.1225  1.1632
19452SOL     OW59796   2.662   2.256   8.879 -0.5095  0.0297 -0.7749
19452SOL    HW159797   2.706   2.321   8.933  1.5253 -0.4410 -1.7455
19452SOL    HW259798   2.645   2.183   8.939  0.8642 -0.1237 -0.5489
19453SOL     OW59799   7.531   0.655   4.650  0.4114  0.5998  0.3635
19453SOL    HW159800   7.445   0.619   4.627  0.6132 -0.8736  1.7515
19453SOL    HW259801   7.589   0.580   4.652  1.3397  1.3209  1.2138
19454SOL     OW59802   4.711   6.244   1.180 -0.2914 -0.4401 -0.0286
19454SOL    HW159803   4.770   6.208   1.246  0.4595  1.5695  0.4753
19454SOL    HW259804   4.650   6.172   1.161  1.9484 -2.4276 -0.1921
19455SOL     OW59805   5.744   7.538   0.396 -0.0830 -0.0396  0.9212
19455SOL    HW159806   5.835   7.526   0.366  0.9088 -0.4470  3.7305
19455SOL    HW259807   5.720   7.452   0.431 -1.6554  0.0387  0.1074
19456SOL     OW59808   3.072   3.235   0.719 -0.3350 -0.4566 -0.0033
19456SOL    HW159809   3.025   3.318   0.717  1.1458  0.4701  1.1768
19456SOL    HW259810   3.090   3.220   0.811  2.2149 -0.3883 -0.4009
19457SOL     OW59811   3.981   4.921   1.062  0.1909 -0.1446  0.1601
19457SOL    HW159812   3.906   4.863   1.075  0.3466 -0.5155 -0.5897
19457SOL    HW259813   3.946   5.009   1.079 -0.2623 -0.3734  0.4184
19458SOL     OW59814   6.308   0.624  10.384  0.1334 -0.2755 -0.0627
19458SOL    HW159815   6.324   0.571  10.305 -1.0769  0.3555 -0.7551
19458SOL    HW259816   6.319   0.562  10.456 -0.1758 -1.2281 -0.7943
19459SOL     OW59817   4.759   7.214   1.759  0.5993  0.0116 -0.4118
19459SOL    HW159818   4.790   7.124   1.751  1.2574  0.3242 -1.7954
19459SOL    HW259819   4.698   7.225   1.687 -0.5434  0.2844  0.5675
19460SOL     OW59820   1.077   5.367   8.658  0.6017 -0.4448 -0.4583
19460SOL    HW159821   0.983   5.368   8.638  0.5108 -1.6008 -0.1397
19460SOL    HW259822   1.082   5.332   8.747  1.0416  3.8395  1.4323
19461SOL     OW59823   4.459   5.906   4.526 -0.7241  0.0144 -0.3428
19461SOL    HW159824   4.476   5.817   4.557 -0.4084  0.0028 -0.5446
19461SOL    HW259825   4.449   5.897   4.431 -1.2362  0.1173 -0.3054
19462SOL     OW59826   2.388   1.123  11.921 -0.7677  0.2730 -0.0560
19462SOL    HW159827   2.483   1.113  11.914 -0.8772 -1.5150  0.5199
19462SOL    HW259828   2.369   1.104  12.013 -1.8532 -1.1765 -0.5502
19463SOL     OW59829   3.671   0.061  10.466 -0.4228  0.3141 -0.5521
19463SOL    HW159830   3.664   0.156  10.463 -1.5191  0.3610  1.7666
19463SOL    HW259831   3.716   0.043  10.548 -0.9835 -1.1894 -0.5466
19464SOL     OW59832   2.771   5.962   8.253  0.1986 -0.8471 -0.1097
19464SOL    HW159833   2.834   5.912   8.202 -1.2920 -1.3609 -1.5148
19464SOL    HW259834   2.705   5.898   8.279 -1.8352  0.3379 -2.0796
19465SOL     OW59835   6.115   0.424  11.952 -0.4394  0.1172 -0.5060
19465SOL    HW159836   6.067   0.419  11.869 -0.5598 -4.1643 -0.4256
19465SOL    HW259837   6.052   0.393  12.017  0.5228  0.6411  0.7082
19466SOL     OW59838   2.442   4.351  11.797 -0.4459  0.4147 -0.1178
19466SOL    HW159839   2.381   4.372  11.726  0.2037  1.3944 -0.3955
19466SOL    HW259840   2.389   4.300  11.859 -1.9355  2.3196  0.2855
19467SOL     OW59841   0.476   5.695   4.145  0.4012  0.1034  0.2816
19467SOL    HW159842   0.492   5.788   4.154 -1.5397  0.6408 -1.1088
19467SOL    HW259843   0.454   5.683   4.053 -3.5195 -0.9164  1.1374
19468SOL     OW59844   3.310   0.064   4.123  0.0670  0.0677 -0.9962
19468SOL    HW159845   3.318   0.110   4.207  2.4511  0.6996 -1.4996
19468SOL    HW259846   3.378   0.102   4.068 -1.5492 -0.1993 -3.3394
19469SOL     OW59847   3.657   7.235   8.872  0.3464  0.0873 -0.1201
19469SOL    HW159848   3.637   7.236   8.965  0.6068  0.9575 -0.0644
19469SOL    HW259849   3.572   7.244   8.829 -0.0541 -2.5727 -0.0500
19470SOL     OW59850   1.828   1.684   5.777  0.2253 -0.0718 -0.3087
19470SOL    HW159851   1.768   1.616   5.744 -0.3966  0.3282 -0.0239
19470SOL    HW259852   1.779   1.766   5.766  0.2543  0.1377  1.0136
19471SOL     OW59853   5.019   6.531   9.980 -0.0224 -0.0838  0.2546
19471SOL    HW159854   4.928   6.543  10.006  0.1423  0.7068  0.5055
19471SOL    HW259855   5.069   6.576  10.048  0.6495 -1.9521  1.0656
19472SOL     OW59856   3.119   2.290   5.944 -0.5392 -0.0149 -0.1970
19472SOL    HW159857   3.110   2.202   5.980 -1.2540  0.1569  0.0477
19472SOL    HW259858   3.043   2.301   5.887  1.2290 -0.7960 -2.9046
19473SOL     OW59859   2.505   2.638   2.402  0.5792  0.9799 -0.1599
19473SOL    HW159860   2.502   2.732   2.384  0.1716  1.4292  2.0410
19473SOL    HW259861   2.483   2.630   2.494  2.6556 -1.1225  0.2581
19474SOL     OW59862   2.969   3.379   1.032 -0.1344 -0.1606  0.0303
19474SOL    HW159863   3.057   3.353   1.004  0.3398  1.2484  0.1106
19474SOL    HW259864   2.934   3.428   0.957 -0.2577  0.5602  0.5515
19475SOL     OW59865   4.720   7.755  11.310 -0.3758 -0.3273 -0.0202
19475SOL    HW159866   4.715   7.749  11.215 -2.2662  0.8769 -0.0749
19475SOL    HW259867   4.802   7.801  11.328  0.4852 -1.4579 -0.9848
19476SOL     OW59868   4.889   5.501   5.860  0.1559  0.2001  0.0160
19476SOL    HW159869   4.977   5.538   5.858  0.6765 -1.0299 -0.6400
19476SOL    HW259870   4.892   5.428   5.798 -1.1894 -0.1774  0.3609
19477SOL     OW59871   7.434   1.136   9.672 -0.1329  0.1896  0.2126
19477SOL    HW159872   7.470   1.128   9.584  0.1741  0.9660  0.2600
19477SOL    HW259873   7.462   1.057   9.718  1.0118  0.4941  0.0681
19478SOL     OW59874   6.702   4.716   5.990  0.4087  0.4478 -0.5143
19478SOL    HW159875   6.617   4.699   5.949 -0.0158 -0.4134  0.6517
19478SOL    HW259876   6.763   4.662   5.941  0.1774  0.5980 -0.9743
19479SOL     OW59877   0.837   6.586   5.818 -0.0539 -0.5100 -0.0681
19479SOL    HW159878   0.752   6.557   5.786 -0.2347  0.0467 -0.0859
19479SOL    HW259879   0.879   6.628   5.742  0.9254 -2.2331 -0.5529
19480SOL     OW59880   2.913   4.936   0.261 -0.1139  0.3221 -0.0733
19480SOL    HW159881   2.849   4.880   0.217  1.6242 -0.2385 -2.0061
19480SOL    HW259882   2.987   4.879   0.279  0.5189  1.3314  0.6635
19481SOL     OW59883   7.130   1.321   1.772  0.3032  0.2892  0.2196
19481SOL    HW159884   7.211   1.284   1.738  0.1202 -0.3514  0.4768
19481SOL    HW259885   7.120   1.404   1.724  0.0572 -0.5767 -1.2887
19482SOL     OW59886   6.447   2.085   4.192  0.3513 -0.0217  0.3146
19482SOL    HW159887   6.365   2.131   4.179  1.1626  0.6319 -3.4250
19482SOL    HW259888   6.506   2.151   4.228 -0.2538 -0.0744  1.4701
19483SOL     OW59889   6.116   6.749   2.163 -0.3495 -0.1689  0.1544
19483SOL    HW159890   6.154   6.684   2.104  1.0831 -1.6022  2.5096
19483SOL    HW259891   6.164   6.830   2.144 -0.8891 -0.2057 -1.5364
19484SOL     OW59892   5.312   7.290   1.952  0.1308 -0.2191  0.6206
19484SOL    HW159893   5.390   7.293   2.007  0.2912 -2.1482  0.5745
19484SOL    HW259894   5.315   7.204   1.910 -0.9550  0.4870 -0.9915
19485SOL     OW59895   2.594   1.942   0.084  0.5025 -0.0558  0.1900
19485SOL    HW159896   2.597   1.998   0.162  0.1087  2.0482 -1.2254
19485SOL    HW259897   2.667   1.972   0.030 -0.2550 -0.2686 -0.9895
19486SOL     OW59898   6.020   5.499   4.479 -0.7201 -0.4232  0.2694
19486SOL    HW159899   6.073   5.571   4.515 -0.1627 -0.5553 -0.2786
19486SOL    HW259900   5.988   5.532   4.395 -1.0628 -0.5510  0.3474
19487SOL     OW59901   5.287   7.168   4.764 -0.0997 -0.5942  0.1986
19487SOL    HW159902   5.351   7.103   4.734 -0.9924 -2.0050  1.2335
19487SOL    HW259903   5.219   7.167   4.696  0.4291  0.0949 -0.3481
19488SOL     OW59904   4.237   0.532   1.138  0.0280  0.3277  0.0673
19488SOL    HW159905   4.233   0.521   1.043  1.1625  0.8546 -0.0682
19488SOL    HW259906   4.205   0.450   1.174  1.4767 -0.6655 -0.8096
19489SOL     OW59907   2.232   6.700   0.720 -0.3442 -0.1454  0.3386
19489SOL    HW159908   2.167   6.661   0.663  0.6949 -0.5750 -0.5993
19489SOL    HW259909   2.266   6.775   0.670  0.4215 -0.3938  0.4638
19490SOL     OW59910   2.510   1.754   8.610 -0.5849  0.1994 -0.0984
19490SOL    HW159911   2.599   1.721   8.601 -0.4001  0.6261  0.1279
19490SOL    HW259912   2.512   1.808   8.689 -1.2500 -0.4478  0.3710
19491SOL     OW59913   7.830   1.836   2.457  0.1319  0.2188 -0.4660
19491SOL    HW159914   7.846   1.797   2.371  1.4105 -1.5127  0.4931
19491SOL    HW259915   7.735   1.825   2.470  0.0786 -0.4093 -1.2522
19492SOL     OW59916   4.270   0.884   3.649  0.1383 -0.0543  0.1647
19492SOL    HW159917   4.289   0.807   3.703 -0.1852 -1.6834 -1.9278
19492SOL    HW259918   4.197   0.928   3.694 -0.5222 -1.6792  0.7542
19493SOL     OW59919   6.252   5.559  11.965  0.2680 -0.1594  0.7680
19493SOL    HW159920   6.249   5.466  11.945  0.6008 -0.1445  0.6325
19493SOL    HW259921   6.293   5.599  11.888  0.8183  0.0000  1.1323
19494SOL     OW59922   1.060   2.768  10.401  0.2275  0.0185  0.1958
19494SOL    HW159923   1.022   2.856  10.395 -1.6476 -0.7764 -0.0287
19494SOL    HW259924   1.034   2.736  10.487 -0.7754 -1.0460 -0.4845
19495SOL     OW59925   3.306   6.413   5.857  0.0054 -0.3869  0.1651
19495SOL    HW159926   3.378   6.358   5.825 -0.0301 -0.4467  0.1882
19495SOL    HW259927   3.349   6.492   5.889 -0.1191  0.8706 -2.4960
19496SOL     OW59928   3.407   2.931   2.925 -0.9036  0.4029  0.3174
19496SOL    HW159929   3.318   2.961   2.906 -0.4796  1.1563 -0.5342
19496SOL    HW259930   3.439   2.897   2.841 -0.2037  0.6213  0.4872
19497SOL     OW59931   0.606   7.563  11.709 -0.4076 -0.1958 -0.5323
19497SOL    HW159932   0.625   7.641  11.656  1.5406  0.0383  0.4429
19497SOL    HW259933   0.611   7.490  11.647 -2.3360  0.4014 -1.4733
19498SOL     OW59934   5.993   1.534  10.442  0.3436  0.0071  0.5914
19498SOL    HW159935   6.043   1.550  10.362 -1.3681 -0.3319 -0.5981
19498SOL    HW259936   6.037   1.460  10.484  0.5548 -0.6141 -0.6878
19499SOL     OW59937   0.727   3.885   9.680 -0.3486  1.0237  0.6461
19499SOL    HW159938   0.706   3.959   9.737 -1.2455  2.0044 -0.8680
19499SOL    HW259939   0.648   3.872   9.628  0.7039  0.7712 -0.9687
19500SOL     OW59940   4.919   3.032   8.179 -0.1302 -0.3165  0.0420
19500SOL    HW159941   4.830   3.023   8.212 -0.1243  0.8930  0.4544
19500SOL    HW259942   4.962   2.950   8.204 -0.2640  0.3238  2.7392
19501SOL     OW59943   0.586   7.719   7.986 -0.4979 -0.8898  0.1397
19501SOL    HW159944   0.496   7.747   7.969 -0.6296 -0.6721  1.1273
19501SOL    HW259945   0.611   7.768   8.065  0.6352 -0.6152 -0.3695
19502SOL     OW59946   6.125   7.526   1.581 -0.2745 -0.0588  0.2342
19502SOL    HW159947   6.128   7.620   1.601  1.3797 -0.0809  0.2305
19502SOL    HW259948   6.036   7.500   1.603 -0.5923  1.3913  0.8048
19503SOL     OW59949   5.700   0.219  11.929 -0.1605  0.2423  0.4338
19503SOL    HW159950   5.729   0.128  11.924  0.8395  0.4328  2.0483
19503SOL    HW259951   5.609   0.217  11.899 -0.7695 -1.6144  2.1435
19504SOL     OW59952   6.103   0.567   9.458 -0.2201 -0.7145 -0.3904
19504SOL    HW159953   6.051   0.527   9.529  0.6249 -0.8079  0.1882
19504SOL    HW259954   6.037   0.601   9.397 -0.9690 -2.1856 -0.4546
19505SOL     OW59955   7.723   4.060   1.070  0.0211  0.6228 -0.2754
19505SOL    HW159956   7.637   4.071   1.112 -1.0192 -0.2193 -2.0602
19505SOL    HW259957   7.785   4.060   1.142 -1.5252  0.7590  1.1238
19506SOL     OW59958   2.924   4.652   2.265 -0.0237  0.2112  0.5524
19506SOL    HW159959   2.883   4.728   2.225  0.7017  0.3336  0.0193
19506SOL    HW259960   3.012   4.682   2.289  0.8680 -0.8697 -1.1240
19507SOL     OW59961   2.077   4.073   0.842 -0.2507 -0.6721  0.3926
19507SOL    HW159962   2.154   4.082   0.785 -1.0238 -1.6448 -0.8592
19507SOL    HW259963   2.061   4.162   0.875  0.5392 -0.1853 -0.4922
19508SOL     OW59964   6.772   4.495   2.571  0.5610 -0.2310  0.0675
19508SOL    HW159965   6.774   4.481   2.477 -0.9714  0.9800 -0.1972
19508SOL    HW259966   6.836   4.434   2.606  1.7331 -0.1590 -1.8122
19509SOL     OW59967   2.401   2.272   9.738 -0.6692 -0.3777 -0.0233
19509SOL    HW159968   2.418   2.358   9.776 -1.1113  0.3722 -1.4309
19509SOL    HW259969   2.406   2.211   9.812  0.9444  0.6727  0.8062
19510SOL     OW59970   4.718   6.442   8.256  0.2884  0.3669  0.2846
19510SOL    HW159971   4.691   6.369   8.311 -0.5981 -0.0767 -0.6945
19510SOL    HW259972   4.806   6.463   8.285 -0.0848  0.0306  1.7343
19511SOL     OW59973   2.842   6.995   3.891 -0.1933  0.1135  0.4458
19511SOL    HW159974   2.866   7.083   3.919 -1.3484  1.0626 -1.2865
19511SOL    HW259975   2.760   6.977   3.937  0.9098 -0.8227  2.1270
19512SOL     OW59976   7.924   7.130   3.012 -0.2658 -0.1256 -0.5863
19512SOL    HW159977   7.974   7.050   3.031 -0.0861  0.2020  0.3980
19512SOL    HW259978   7.870   7.143   3.090 -0.4924  0.5647 -0.8529
19513SOL     OW59979   0.428   3.810   7.266 -0.8113  0.1984  0.5963
19513SOL    HW159980   0.481   3.881   7.302 -0.7530 -0.1813  1.2968
19513SOL    HW259981   0.491   3.743   7.241 -0.9629 -0.6302  2.2653
19514SOL     OW59982   7.641   5.350   0.669 -0.1190 -0.7075 -0.2992
19514SOL    HW159983   7.693   5.423   0.701 -0.0447 -0.3326 -1.2380
19514SOL    HW259984   7.671   5.336   0.579 -0.3431 -1.6993 -0.2367
19515SOL     OW59985   4.523   4.165   9.548  0.4439  0.6619  0.5829
19515SOL    HW159986   4.534   4.193   9.639  0.9042 -1.1305  1.1081
19515SOL    HW259987   4.428   4.157   9.537  0.3978  0.6315  0.9821
19516SOL     OW59988   1.284   7.200   1.614 -0.5546 -0.2528 -0.3261
19516SOL    HW159989   1.335   7.129   1.654 -1.0078 -0.3664  0.0738
19516SOL    HW259990   1.317   7.207   1.525 -0.3046 -0.7744 -0.2776
19517SOL     OW59991   6.356   3.190   7.183  0.0791 -0.2891  0.1045
19517SOL    HW159992   6.376   3.104   7.218  4.1069 -0.4007 -1.8977
19517SOL    HW259993   6.333   3.174   7.091 -2.9085  0.6076  0.5592
19518SOL     OW59994   1.306   5.964   0.820 -0.1484 -0.4665  0.5697
19518SOL    HW159995   1.212   5.982   0.812 -0.2827 -0.6037  1.5968
19518SOL    HW259996   1.311   5.869   0.833  0.1513 -0.4937  0.2466
19519SOL     OW59997   1.975   5.824   3.258  0.1856  0.4780  0.5341
19519SOL    HW159998   2.021   5.849   3.338  1.7495  1.7691 -0.6982
19519SOL    HW259999   1.989   5.729   3.251  2.5401  0.7817  0.3440
19520SOL     OW60000   2.771   2.245   9.982  0.7962  0.0041  0.0787
19520SOL    HW160001   2.762   2.161  10.028 -0.2479  1.2286  2.2816
19520SOL    HW260002   2.864   2.267   9.990  0.4556  0.8037  2.9535
19521SOL     OW60003   2.443   6.776   2.426  0.0561  0.2337  0.5381
19521SOL    HW160004   2.444   6.835   2.350 -1.7069  0.0684  0.3502
19521SOL    HW260005   2.409   6.830   2.497 -2.9125 -0.7941  0.0567
19522SOL     OW60006   0.141   3.288   9.495  0.1129  0.0149 -0.3775
19522SOL    HW160007   0.092   3.369   9.486  0.4769  0.3917  0.9493
19522SOL    HW260008   0.074   3.219   9.496 -0.3266  0.4525  0.4948
19523SOL     OW60009   5.901   1.704   1.978  0.1778 -0.8219 -0.0770
19523SOL    HW160010   5.962   1.751   2.035  0.6262 -1.4017 -0.0639
19523SOL    HW260011   5.891   1.618   2.019  1.3687 -1.6593 -1.3967
19524SOL     OW60012   6.256   0.284  12.220  0.5688  0.6251  0.2208
19524SOL    HW160013   6.250   0.379  12.230 -1.9772  0.4122  1.6147
19524SOL    HW260014   6.170   0.252  12.247  1.1915 -2.0659 -0.6726
19525SOL     OW60015   0.585   5.930   2.795 -0.1767  0.4506 -0.0057
19525SOL    HW160016   0.648   5.992   2.833  0.2083 -0.4411  0.8759
19525SOL    HW260017   0.632   5.889   2.723 -0.1054  0.5096  0.0068
19526SOL     OW60018   2.943   4.528   1.856  0.1328 -0.7240 -0.0118
19526SOL    HW160019   3.000   4.573   1.795  0.6338 -1.9340 -0.4646
19526SOL    HW260020   2.993   4.523   1.938 -0.5308  0.8798  0.5251
19527SOL     OW60021   2.913   5.144   8.094 -0.5193 -0.5934  0.1323
19527SOL    HW160022   2.965   5.064   8.096  1.3484  0.5468 -0.4970
19527SOL    HW260023   2.968   5.208   8.050 -1.8762  1.1121  0.7766
19528SOL     OW60024   2.424   2.158  12.333  0.2874  0.0035  0.3192
19528SOL    HW160025   2.502   2.105  12.348 -0.7911 -2.0464 -0.8859
19528SOL    HW260026   2.375   2.152  12.414  1.2106  1.0446  0.9724
19529SOL     OW60027   4.759   5.670   9.766 -0.2312  0.1328  0.3367
19529SOL    HW160028   4.768   5.716   9.849 -1.9946  2.0800 -0.4732
19529SOL    HW260029   4.811   5.721   9.704  0.4203 -0.8451  0.0532
19530SOL     OW60030   2.985   5.056   5.776  0.2130  0.2796  0.4578
19530SOL    HW160031   2.990   5.136   5.724  0.8941  1.0110  1.6037
19530SOL    HW260032   3.050   5.069   5.846 -1.5885 -0.0783  2.2964
19531SOL     OW60033   6.492   5.965   9.710  0.1831  1.0374  0.3021
19531SOL    HW160034   6.573   5.966   9.761  0.5668 -0.4489 -0.1893
19531SOL    HW260035   6.522   5.972   9.619 -0.2041  0.1928  0.1013
19532SOL     OW60036   4.859   0.698   2.242 -0.3902  0.5847 -0.2934
19532SOL    HW160037   4.766   0.679   2.225 -0.2265 -0.8062  0.2396
19532SOL    HW260038   4.901   0.612   2.244  0.6351  1.0845  1.0497
19533SOL     OW60039   6.527   3.365   2.976 -0.7391  0.0092  0.4079
19533SOL    HW160040   6.510   3.303   3.047  0.9306  0.0014  0.8446
19533SOL    HW260041   6.577   3.315   2.911 -0.0935  0.6682  0.3817
19534SOL     OW60042   7.303   4.441  11.163 -0.2075 -0.1453  0.6871
19534SOL    HW160043   7.247   4.414  11.236  0.1431  1.0289  1.4053
19534SOL    HW260044   7.364   4.368  11.153 -0.1655 -0.2593  1.6586
19535SOL     OW60045   5.419   4.368  12.344  0.1530  0.7485 -0.1484
19535SOL    HW160046   5.373   4.381  12.427  2.4526 -3.5396  2.1004
19535SOL    HW260047   5.494   4.427  12.348  0.9109 -0.2686  1.5041
19536SOL     OW60048   4.773   2.332  11.757  0.5981 -0.1585  0.7418
19536SOL    HW160049   4.719   2.386  11.816  0.0859 -0.3392  0.4432
19536SOL    HW260050   4.863   2.360  11.775  0.2654  2.2972 -0.8329
19537SOL     OW60051   1.712   0.969   9.597  0.0512  0.4066  0.1708
19537SOL    HW160052   1.652   0.914   9.647  0.0453  0.2508 -0.0059
19537SOL    HW260053   1.663   1.051   9.583  0.0080  0.4053  0.3143
19538SOL     OW60054   2.599   1.670   0.763  0.4625 -0.0091 -0.1665
19538SOL    HW160055   2.603   1.656   0.669  1.4433  0.6446 -0.2276
19538SOL    HW260056   2.640   1.755   0.777  0.4216 -0.1426  0.8617
19539SOL     OW60057   4.314   5.393   1.849 -0.4862 -0.0341  0.6867
19539SOL    HW160058   4.312   5.339   1.770 -0.7515 -1.1818  1.4558
19539SOL    HW260059   4.396   5.442   1.842 -0.2952 -0.4430 -0.0899
19540SOL     OW60060   4.228   0.024   1.340 -0.3217  0.4181  0.0820
19540SOL    HW160061   4.219  -0.032   1.418 -0.9008 -0.5176 -0.6327
19540SOL    HW260062   4.225  -0.037   1.267  2.8250  0.9971 -0.6416
19541SOL     OW60063   7.362   2.209   2.550 -0.8235 -0.4258  0.1310
19541SOL    HW160064   7.366   2.150   2.475  0.0877 -0.7996  0.4511
19541SOL    HW260065   7.452   2.241   2.559 -0.5916 -1.4683  1.9123
19542SOL     OW60066   1.164   2.007   2.400 -0.4582  0.1046  0.7396
19542SOL    HW160067   1.090   1.963   2.357 -0.6234 -0.5124  1.6177
19542SOL    HW260068   1.235   1.943   2.395 -0.0370  0.6236  0.0634
19543SOL     OW60069   4.413   5.808  11.085  0.1923  0.2413 -0.0515
19543SOL    HW160070   4.508   5.824  11.085  0.0561  1.1201  0.1241
19543SOL    HW260071   4.400   5.740  11.151  0.6671  0.3513  0.1592
19544SOL     OW60072   2.896   5.503   9.334 -0.3129 -0.4471  0.2340
19544SOL    HW160073   2.975   5.557   9.332 -0.1244 -0.7240 -0.3945
19544SOL    HW260074   2.835   5.547   9.275  0.1774 -1.3747 -1.0355
19545SOL     OW60075   0.134   3.440   0.014  0.2042  0.2885 -0.5265
19545SOL    HW160076   0.200   3.505   0.036 -0.0342  0.4726 -0.3582
19545SOL    HW260077   0.170   3.358   0.048 -0.2883  0.6164  0.8019
19546SOL     OW60078   3.431   3.798   4.976  0.2028  0.1036 -0.5283
19546SOL    HW160079   3.466   3.773   5.062 -0.3106  0.3092 -0.2470
19546SOL    HW260080   3.410   3.891   4.985  0.9913  0.3478 -1.1766
19547SOL     OW60081   7.598   0.784   2.305 -0.0087  0.1090 -0.2143
19547SOL    HW160082   7.667   0.719   2.317  0.6253  0.7013 -0.5605
19547SOL    HW260083   7.645   0.866   2.288 -0.7978  0.5188 -0.4778
19548SOL     OW60084   5.414   1.796   7.356  0.1725  0.8280  0.6737
19548SOL    HW160085   5.462   1.878   7.343  0.9834  0.3721  0.7839
19548SOL    HW260086   5.477   1.727   7.339 -1.1395  0.1577 -1.9299
19549SOL     OW60087   1.984   6.296  10.173 -0.4829 -0.0681  0.1560
19549SOL    HW160088   1.891   6.273  10.167 -0.2200 -1.6635  1.4162
19549SOL    HW260089   1.991   6.345  10.255 -0.0790 -0.9218  0.6553
19550SOL     OW60090   3.172   0.486   9.791 -0.6181  0.6524 -0.3211
19550SOL    HW160091   3.202   0.397   9.776 -0.7719  0.6856 -0.8322
19550SOL    HW260092   3.251   0.540   9.784 -0.5099  0.5503  0.0806
19551SOL     OW60093   6.991   5.785  10.257  0.7153 -0.0954 -0.0271
19551SOL    HW160094   6.996   5.692  10.278 -1.2236  0.1342  1.7688
19551SOL    HW260095   7.026   5.829  10.335 -0.7900  0.6949  0.2390
19552SOL     OW60096   0.031   2.789  10.761 -0.0479 -0.6483  0.2908
19552SOL    HW160097  -0.043   2.834  10.801 -0.0881 -0.0363 -0.4435
19552SOL    HW260098   0.057   2.846  10.688  0.0450 -1.7009 -0.5252
19553SOL     OW60099   7.877   1.234   5.778  0.5049  0.5941  0.0339
19553SOL    HW160100   7.862   1.329   5.781 -0.8579  0.4622 -1.1832
19553SOL    HW260101   7.795   1.198   5.743  1.4647 -0.8946 -0.8059
19554SOL     OW60102   0.448   0.990   2.993  0.3904 -0.4347 -0.3241
19554SOL    HW160103   0.529   1.018   2.950  0.9489 -1.3905  0.0845
19554SOL    HW260104   0.467   1.001   3.087  0.3249 -1.3718 -0.1967
19555SOL     OW60105   6.371   4.236   6.568  0.0175  0.1456  0.2253
19555SOL    HW160106   6.367   4.247   6.473 -1.9404  0.3531  0.3000
19555SOL    HW260107   6.392   4.323   6.602  1.6354 -0.1167 -0.0312
19556SOL     OW60108   4.405   7.412   7.972 -0.2153  0.0491  0.3869
19556SOL    HW160109   4.312   7.435   7.980 -0.4812 -0.1776 -1.6315
19556SOL    HW260110   4.439   7.420   8.061 -1.9669  0.9815  1.0191
19557SOL     OW60111   2.131   2.146   6.870  0.3699  0.3581  0.3188
19557SOL    HW160112   2.149   2.228   6.825  1.3638  0.0461  0.1206
19557SOL    HW260113   2.071   2.169   6.941 -1.9219  0.7351 -1.6349
19558SOL     OW60114   6.793   2.612   5.660  0.0255  0.1428  0.1505
19558SOL    HW160115   6.882   2.587   5.685 -0.0468 -2.4843 -1.7222
19558SOL    HW260116   6.737   2.576   5.729  0.2684 -0.8041 -0.1266
19559SOL     OW60117   3.416   6.373   7.915  0.1086  0.1950  0.1240
19559SOL    HW160118   3.445   6.401   7.829  1.3084  0.3023  0.5483
19559SOL    HW260119   3.372   6.289   7.900  0.0048  0.3809 -0.6202
19560SOL     OW60120   0.328   3.108   2.069  0.1327 -0.3869 -0.1503
19560SOL    HW160121   0.415   3.120   2.108 -0.2252 -1.1126  0.9184
19560SOL    HW260122   0.268   3.130   2.140 -0.6103  1.3566 -1.2435
19561SOL     OW60123   2.954   5.550   4.710 -0.7582 -0.1591  0.0311
19561SOL    HW160124   2.979   5.642   4.695 -2.9071  0.3604 -0.7005
19561SOL    HW260125   2.923   5.548   4.800  0.3141 -0.4555  0.4156
19562SOL     OW60126   0.072   3.179   3.466  0.2648 -0.5188 -0.0992
19562SOL    HW160127   0.054   3.091   3.434 -0.4648 -0.7949  0.9997
19562SOL    HW260128   0.161   3.174   3.502  0.4119 -0.6739 -0.4855
19563SOL     OW60129   7.707   6.629   6.936 -0.0781 -0.3798 -0.0493
19563SOL    HW160130   7.710   6.551   6.881  2.0530 -0.2197 -0.2531
19563SOL    HW260131   7.616   6.635   6.965 -1.0184 -1.1211 -2.6055
19564SOL     OW60132   1.737   7.381   0.272  0.5575 -0.3987  0.0038
19564SOL    HW160133   1.775   7.357   0.188  1.2405 -0.2702  0.2646
19564SOL    HW260134   1.714   7.473   0.262  0.4215 -0.4463 -0.1200
19565SOL     OW60135   5.897   3.662   1.493  0.1074 -0.3056  0.6167
19565SOL    HW160136   5.951   3.699   1.423 -0.8025 -0.0796  0.0236
19565SOL    HW260137   5.828   3.726   1.508 -0.2029 -0.7458  1.1207
19566SOL     OW60138   7.528   7.773  10.756 -0.2561 -0.1916  0.0922
19566SOL    HW160139   7.549   7.720  10.679 -0.0573  1.1148 -0.7679
19566SOL    HW260140   7.609   7.822  10.774 -0.6673  0.3702  0.4341
19567SOL     OW60141   0.237   0.644   8.399  0.1335  0.0827  0.2171
19567SOL    HW160142   0.240   0.598   8.482 -0.2358 -0.0589  0.1554
19567SOL    HW260143   0.321   0.688   8.392  0.3400 -0.2739  0.4553
19568SOL     OW60144   4.981   3.331   2.814 -0.1767 -0.4387  0.2081
19568SOL    HW160145   4.900   3.381   2.799 -0.2105 -0.3990  0.5181
19568SOL    HW260146   4.995   3.283   2.732  0.1527  0.4895 -0.2896
19569SOL     OW60147   5.410   5.153   7.823  0.1547  0.3284  0.0218
19569SOL    HW160148   5.344   5.084   7.834  0.7985 -0.1135  1.2796
19569SOL    HW260149   5.370   5.214   7.761 -0.5004 -1.0784 -1.0026
19570SOL     OW60150   6.994   5.404   2.371  0.2461  0.0221  0.0156
19570SOL    HW160151   7.046   5.427   2.294  2.1387 -0.0168  1.2442
19570SOL    HW260152   7.025   5.463   2.440 -0.0697 -1.2048  1.2505
19571SOL     OW60153   7.290   6.950   2.181  0.7058  0.2476 -0.7795
19571SOL    HW160154   7.233   6.888   2.135 -0.3370 -0.3535  1.2389
19571SOL    HW260155   7.348   6.896   2.234  2.2744  0.9153 -1.7238
19572SOL     OW60156   2.229   3.029   8.434  0.0169 -0.3709  0.5170
19572SOL    HW160157   2.145   2.984   8.428  0.4799 -1.0848 -0.8439
19572SOL    HW260158   2.286   2.968   8.481  0.0454 -0.2979  0.5781
19573SOL     OW60159   1.280   6.704  11.999 -0.3385  0.1123  0.1819
19573SOL    HW160160   1.314   6.688  11.910 -0.3050  1.2603 -0.0244
19573SOL    HW260161   1.322   6.637  12.052  1.6931  1.0044 -0.2103
19574SOL     OW60162   6.920   4.408   9.870 -0.0358 -0.2540  0.6216
19574SOL    HW160163   6.973   4.470   9.920  0.0662  0.4723 -0.3541
19574SOL    HW260164   6.967   4.397   9.788 -0.8681 -0.3905  0.1538
19575SOL     OW60165   2.153   5.918   2.358  0.5612 -0.1720 -0.7468
19575SOL    HW160166   2.077   5.929   2.415 -0.1716 -0.1050 -1.7214
19575SOL    HW260167   2.224   5.962   2.404  0.1721 -0.7640  0.4700
19576SOL     OW60168   4.331   4.404   3.390 -0.0380 -0.4142  0.8188
19576SOL    HW160169   4.355   4.349   3.316  0.1840  0.7026  0.0357
19576SOL    HW260170   4.394   4.476   3.388 -0.5857  0.0966  1.5531
19577SOL     OW60171   6.856   0.844   2.895 -0.2662 -0.2718  0.2292
19577SOL    HW160172   6.817   0.817   2.978 -1.7975  1.1582  0.0372
19577SOL    HW260173   6.908   0.922   2.917  2.2390 -1.8597  0.3899
19578SOL     OW60174   6.327   7.457   2.115  0.4435  0.0393 -0.6466
19578SOL    HW160175   6.343   7.456   2.209  1.1828  3.5172 -0.5780
19578SOL    HW260176   6.233   7.469   2.106  0.6519  2.5239 -0.1567
19579SOL     OW60177   7.765   5.659   0.279  0.0171 -0.2763 -0.8145
19579SOL    HW160178   7.809   5.633   0.360 -0.5566 -2.7851 -1.2084
19579SOL    HW260179   7.679   5.690   0.306 -0.3580 -1.5648 -0.4320
19580SOL     OW60180   0.813   5.106   7.615  0.4704 -0.1871  0.0374
19580SOL    HW160181   0.732   5.156   7.620  1.6549  1.7571  1.0936
19580SOL    HW260182   0.794   5.023   7.660 -1.3306 -0.4531 -1.1199
19581SOL     OW60183   1.894   1.532   3.906 -0.2527  0.1752 -0.0352
19581SOL    HW160184   1.824   1.591   3.932 -0.7618 -1.1683  1.7892
19581SOL    HW260185   1.895   1.463   3.972  1.9798 -0.5303 -0.6890
19582SOL     OW60186   3.526   6.900   5.528  0.6754  0.0456  0.3531
19582SOL    HW160187   3.578   6.861   5.458  1.9987  1.0437  0.7423
19582SOL    HW260188   3.443   6.852   5.526  1.1480 -0.7631 -1.0814
19583SOL     OW60189   2.482   1.464   6.706  0.2660 -0.0711 -0.1741
19583SOL    HW160190   2.413   1.402   6.728 -0.2704  0.2435 -0.9136
19583SOL    HW260191   2.539   1.416   6.646  1.4975 -0.7922  1.4975
19584SOL     OW60192   7.911   2.002   8.183 -0.4616  0.4130 -0.2985
19584SOL    HW160193   8.003   2.018   8.203 -0.3744 -1.0958  0.6425
19584SOL    HW260194   7.889   1.922   8.230 -2.3454  0.8804 -0.2872
19585SOL     OW60195   2.005   7.498   3.977  0.4761  0.0232  0.3013
19585SOL    HW160196   2.021   7.481   4.070 -0.6182  1.3494  0.7716
19585SOL    HW260197   2.052   7.579   3.959  1.4909 -0.7319 -0.5823
19586SOL     OW60198   2.815   0.643  10.088 -0.3239  0.6616  0.7058
19586SOL    HW160199   2.879   0.597  10.142 -0.8808  0.2269  1.0010
19586SOL    HW260200   2.847   0.633   9.999 -0.0321  0.3618  0.8430
19587SOL     OW60201   5.352   2.618   1.024  0.1067 -0.4115 -0.1529
19587SOL    HW160202   5.267   2.644   0.991 -0.6025 -0.8718  1.2261
19587SOL    HW260203   5.415   2.664   0.968 -1.0027 -0.8707 -1.8544
19588SOL     OW60204   3.730   1.482  11.005  0.1875 -0.2333 -0.3704
19588SOL    HW160205   3.788   1.416  10.967  1.0167 -0.6569  1.5517
19588SOL    HW260206   3.734   1.555  10.943  1.4092 -0.9160 -1.1442
19589SOL     OW60207   0.966   0.219   0.854 -0.7053 -0.3245 -0.8143
19589SOL    HW160208   0.884   0.258   0.881 -0.2584  0.6171 -0.7766
19589SOL    HW260209   0.945   0.127   0.838 -1.5631 -0.2876  0.0462
19590SOL     OW60210   1.313   2.181  12.322  0.0612 -0.0547  0.4003
19590SOL    HW160211   1.351   2.252  12.270 -0.9703 -0.0304 -0.3540
19590SOL    HW260212   1.331   2.206  12.413  2.4847 -0.4353  0.0845
19591SOL     OW60213   0.190   2.218   7.282 -0.3041 -0.0210 -0.2092
19591SOL    HW160214   0.225   2.202   7.370 -1.9753 -0.1893  0.4737
19591SOL    HW260215   0.208   2.137   7.234 -1.2266 -0.7674  0.6458
19592SOL     OW60216   1.794   7.283   2.096  0.1968  0.4861  0.4207
19592SOL    HW160217   1.728   7.238   2.148  0.6986 -1.7167 -0.7334
19592SOL    HW260218   1.826   7.353   2.153 -0.4659 -0.7622  2.4173
19593SOL     OW60219   1.927   7.771   2.351 -1.2039 -0.2622  0.1764
19593SOL    HW160220   1.890   7.854   2.381  1.1701  0.9436 -0.0240
19593SOL    HW260221   1.861   7.735   2.292 -2.4909  1.2351  0.6487
19594SOL     OW60222   5.866   5.214   8.101  0.2901 -0.1307  0.0330
19594SOL    HW160223   5.780   5.246   8.072  1.4607  0.0809 -3.7568
19594SOL    HW260224   5.905   5.289   8.146  0.1064  1.3680 -2.1353
19595SOL     OW60225   4.456   4.576   2.554 -0.2033  0.8948 -0.1272
19595SOL    HW160226   4.482   4.665   2.581  1.5137  0.3897  0.0422
19595SOL    HW260227   4.430   4.586   2.463 -0.0677  1.5880 -0.1001
19596SOL     OW60228   1.285   1.892   7.658 -0.2943 -0.2020  0.1099
19596SOL    HW160229   1.254   1.966   7.607  2.4885  0.3274 -0.9806
19596SOL    HW260230   1.286   1.819   7.597 -1.0548 -0.6494  0.6193
19597SOL     OW60231   6.156   0.835   1.217  0.7735 -0.1114  0.3056
19597SOL    HW160232   6.099   0.902   1.179  0.1660  0.1480  1.6073
19597SOL    HW260233   6.181   0.780   1.143  1.4328  1.6299 -0.8273
19598SOL     OW60234   6.649   5.575   2.323  0.0787  0.4603  0.4494
19598SOL    HW160235   6.619   5.497   2.370 -0.7309 -0.3785 -1.3551
19598SOL    HW260236   6.569   5.618   2.294  0.5333  1.6434  0.9017
19599SOL     OW60237   5.709   6.975   9.874 -0.1911 -0.3765 -0.0776
19599SOL    HW160238   5.760   6.898   9.901  1.3380  1.2023  1.9192
19599SOL    HW260239   5.636   6.978   9.936 -0.0426 -0.0514  0.0864
19600SOL     OW60240   0.322   0.056   0.503  0.5021 -0.0506  0.2637
19600SOL    HW160241   0.313   0.056   0.598  1.6449  0.1643  0.3809
19600SOL    HW260242   0.255   0.118   0.473 -0.1138 -0.4016  0.8908
19601SOL     OW60243   0.644   1.432   8.761  0.2641  0.1569  0.0230
19601SOL    HW160244   0.652   1.476   8.677 -0.1759 -0.6944 -0.4771
19601SOL    HW260245   0.550   1.429   8.778  0.3849  1.0786  0.9668
19602SOL     OW60246   2.464   3.215   2.745 -0.4307 -0.1027  0.9147
19602SOL    HW160247   2.392   3.164   2.708 -1.0968  0.8657  0.8458
19602SOL    HW260248   2.489   3.167   2.824 -0.8404 -0.6950  0.6882
19603SOL     OW60249   2.874   0.999   2.302  0.1333  0.1452 -0.7277
19603SOL    HW160250   2.903   0.921   2.349 -0.6847 -0.6668 -1.5133
19603SOL    HW260251   2.781   1.008   2.324  0.2802  1.0705 -0.4265
19604SOL     OW60252   2.144   5.692   1.468 -0.1587 -0.1676  0.4810
19604SOL    HW160253   2.103   5.773   1.498 -1.0958 -0.3897 -0.1408
19604SOL    HW260254   2.236   5.714   1.456 -0.2917  0.6446  0.8830
19605SOL     OW60255   6.474   1.646   3.266  0.0099 -0.4969 -0.3286
19605SOL    HW160256   6.468   1.560   3.225  0.0223 -0.3422 -0.6590
19605SOL    HW260257   6.402   1.696   3.228 -0.9889 -0.8311  1.0251
19606SOL     OW60258   1.854   3.513   6.655  0.7622 -0.0061 -0.4222
19606SOL    HW160259   1.800   3.507   6.733 -0.9765 -1.9140 -1.6736
19606SOL    HW260260   1.910   3.590   6.670 -1.7254  1.6154  1.3137
19607SOL     OW60261   4.551   6.796  10.225  0.1615 -0.1678 -0.1950
19607SOL    HW160262   4.508   6.839  10.151 -0.9632  0.1803  0.6219
19607SOL    HW260263   4.587   6.868  10.277  0.0963 -0.3494  0.1012
19608SOL     OW60264   3.933   0.538   1.056 -0.0390 -0.0043  0.3841
19608SOL    HW160265   3.947   0.632   1.061 -0.3385  0.0419  0.3871
19608SOL    HW260266   3.863   0.527   0.991  0.0108 -0.2233  0.3666
19609SOL     OW60267   0.965   2.142   5.226  0.3390  0.1397  0.2513
19609SOL    HW160268   0.961   2.237   5.232  1.6832  0.1066  2.7404
19609SOL    HW260269   1.045   2.124   5.177  0.1538  0.2597 -0.1030
19610SOL     OW60270   3.050   2.562   3.282 -0.0162  0.4746  0.3888
19610SOL    HW160271   3.133   2.571   3.329 -0.5681  0.5655  1.3667
19610SOL    HW260272   3.016   2.652   3.275 -0.1458  0.4128  0.2125
19611SOL     OW60273   4.812   6.986   5.734  0.1408  0.6692  0.2096
19611SOL    HW160274   4.872   7.055   5.763 -0.3543  1.2482 -0.1143
19611SOL    HW260275   4.856   6.947   5.659  1.9574 -1.5760  2.2572
19612SOL     OW60276   5.048   1.441   7.235 -0.0296  0.1634  0.3602
19612SOL    HW160277   4.980   1.500   7.203  0.2165  2.7813  4.0753
19612SOL    HW260278   5.002   1.358   7.249 -1.4053  0.6292 -1.0508
19613SOL     OW60279   1.918   0.822   9.939 -0.3000  0.6362  0.6242
19613SOL    HW160280   1.839   0.871   9.963 -0.5334  0.9943 -0.7915
19613SOL    HW260281   1.887   0.759   9.873  0.5148  0.4599  0.4026
19614SOL     OW60282   4.244   2.226   2.802 -0.6797 -0.2723 -0.3622
19614SOL    HW160283   4.220   2.311   2.838 -0.3476  0.3558 -1.6049
19614SOL    HW260284   4.293   2.245   2.722  3.5481 -1.4829  1.6355
19615SOL     OW60285   6.646   5.604   6.907  0.0356 -0.2440 -0.0016
19615SOL    HW160286   6.730   5.633   6.871  0.0997  0.5153  0.7128
19615SOL    HW260287   6.580   5.644   6.850  0.1480  0.3976  0.3037
19616SOL     OW60288   7.777   2.305   6.107  0.0908 -0.4023 -0.2241
19616SOL    HW160289   7.797   2.272   6.195 -1.5651  0.4195  0.5062
19616SOL    HW260290   7.692   2.265   6.085 -0.8983  1.5842 -0.2268
19617SOL     OW60291   1.266   5.584   3.440  0.3293  0.0993  0.3276
19617SOL    HW160292   1.171   5.584   3.451  0.1512  1.9177 -0.7091
19617SOL    HW260293   1.300   5.616   3.523 -0.1083  1.1108  0.1364
19618SOL     OW60294   5.836   7.322  11.584  0.1122  0.0202  0.2703
19618SOL    HW160295   5.859   7.293  11.673  1.5211  0.3598  0.0324
19618SOL    HW260296   5.879   7.259  11.527  1.9228  1.6286 -0.2280
19619SOL     OW60297   7.908   1.363   7.605 -0.5977 -0.9881  0.0391
19619SOL    HW160298   7.959   1.308   7.665  0.9717  0.1838 -0.1290
19619SOL    HW260299   7.905   1.448   7.649  0.9495  0.0183 -1.6483
19620SOL     OW60300   3.210   1.290  12.094  0.1691 -0.2789  0.8609
19620SOL    HW160301   3.262   1.294  12.175  1.2866 -0.4746  0.1694
19620SOL    HW260302   3.274   1.287  12.024 -0.7787 -0.8552 -0.0164
19621SOL     OW60303   6.230   7.640   6.818  0.2660  0.2598 -0.2884
19621SOL    HW160304   6.198   7.728   6.801  0.7072  0.4339 -0.2184
19621SOL    HW260305   6.153   7.592   6.851 -0.2835  0.2683 -1.5299
19622SOL     OW60306   0.071   6.435   3.588  0.2123 -0.5149  0.2236
19622SOL    HW160307   0.127   6.450   3.665  0.2713  0.8014 -0.0436
19622SOL    HW260308  -0.017   6.457   3.618  0.1359 -0.6619  0.1059
19623SOL     OW60309   3.584   0.809   1.366  0.6199  0.7619 -0.2735
19623SOL    HW160310   3.568   0.723   1.405 -0.5089  1.0543 -0.0662
19623SOL    HW260311   3.631   0.790   1.285  0.1725 -0.0730 -0.3529
19624SOL     OW60312   4.122   5.624  10.805  0.4698  0.1583  0.1396
19624SOL    HW160313   4.169   5.541  10.810 -0.2379 -0.2144  0.8575
19624SOL    HW260314   4.101   5.634  10.712  1.1208 -0.1435 -0.0429
19625SOL     OW60315   7.468   3.635   3.353  0.3673  0.5912  0.2095
19625SOL    HW160316   7.382   3.675   3.333  0.5927 -0.0304 -2.4351
19625SOL    HW260317   7.487   3.662   3.442 -3.0771 -0.1290  1.3135
19626SOL     OW60318   0.200   1.392   5.525 -0.0474 -0.4746  0.5924
19626SOL    HW160319   0.273   1.359   5.473 -0.3305 -1.2660  0.6940
19626SOL    HW260320   0.218   1.361   5.614 -0.2657 -0.2605  0.7143
19627SOL     OW60321   0.299   4.680  10.070  0.4637 -0.2942  0.0471
19627SOL    HW160322   0.394   4.693  10.063  0.0610  3.3097 -1.3354
19627SOL    HW260323   0.270   4.667   9.980 -0.4201 -0.6670  0.3767
19628SOL     OW60324   5.535   0.016   2.803  0.2994 -0.4974  0.3915
19628SOL    HW160325   5.526   0.004   2.897 -0.2605  1.8114  0.6929
19628SOL    HW260326   5.461   0.072   2.779  1.9720  1.2923 -0.9062
19629SOL     OW60327   6.032   5.863   9.439 -0.1401  0.2442  0.3421
19629SOL    HW160328   5.987   5.828   9.515  0.3914 -0.5135  0.3194
19629SOL    HW260329   5.962   5.899   9.384 -0.5357  0.7003  1.1248
19630SOL     OW60330   5.410   3.892   6.775 -0.2623 -0.3567  0.4041
19630SOL    HW160331   5.359   3.901   6.694 -1.7135 -1.7104  1.0953
19630SOL    HW260332   5.417   3.797   6.787  0.0946 -0.1669  1.7491
19631SOL     OW60333   7.926   1.595  10.353 -0.3572  0.4046  0.1760
19631SOL    HW160334   7.954   1.508  10.382 -1.9070  0.7257  2.9159
19631SOL    HW260335   7.855   1.578  10.290 -0.9045 -0.3276  0.9798
19632SOL     OW60336   1.369   4.724   0.288  0.0419  0.2636 -0.0084
19632SOL    HW160337   1.311   4.668   0.340 -0.9616  1.3373  0.0765
19632SOL    HW260338   1.398   4.791   0.350  0.3363  0.4818 -0.3787
19633SOL     OW60339   6.362   1.204   1.174  0.0270  0.0721  0.1211
19633SOL    HW160340   6.300   1.263   1.217  1.1876  0.4680  1.3212
19633SOL    HW260341   6.378   1.135   1.239  1.1012  0.1609 -0.0305
19634SOL     OW60342   1.675   1.597  10.079 -0.3250 -0.4922  0.2433
19634SOL    HW160343   1.693   1.517  10.127  0.1030 -1.2782 -1.1742
19634SOL    HW260344   1.741   1.659  10.110  0.1247 -1.0686  0.4525
19635SOL     OW60345   2.426   1.956   8.296  0.2026  0.0974 -0.4005
19635SOL    HW160346   2.475   1.892   8.244  0.4141  1.5135 -2.0572
19635SOL    HW260347   2.364   1.904   8.346  1.6785 -1.5407 -0.1781
19636SOL     OW60348   2.628   2.999   6.851  0.0920  0.0201 -0.1284
19636SOL    HW160349   2.646   2.915   6.809 -2.3675  0.8046 -3.0201
19636SOL    HW260350   2.609   2.976   6.942 -0.9533 -2.6261 -0.9293
19637SOL     OW60351   4.781   3.011   3.369 -0.2399 -0.0613  0.3875
19637SOL    HW160352   4.700   3.009   3.317  0.2935  1.4974 -0.5741
19637SOL    HW260353   4.850   3.024   3.304  0.8547 -1.7709  1.1653
19638SOL     OW60354   2.341   5.757   7.601 -0.0536  0.3994 -0.0471
19638SOL    HW160355   2.314   5.668   7.579  0.7589  0.5036 -1.5887
19638SOL    HW260356   2.434   5.750   7.622 -0.3466  0.6485  1.4615
19639SOL     OW60357   4.258   3.452  11.599  0.3095  0.2463  1.2894
19639SOL    HW160358   4.187   3.414  11.650 -0.0569 -0.2281  0.4391
19639SOL    HW260359   4.260   3.544  11.626 -0.0620  0.0724  1.9352
19640SOL     OW60360   0.575   5.136   4.105 -0.4481 -0.2044  0.0234
19640SOL    HW160361   0.502   5.168   4.051  0.0672 -1.1843 -1.3064
19640SOL    HW260362   0.584   5.202   4.174 -0.9716  1.2341 -1.2244
19641SOL     OW60363   2.713   4.687   4.822  0.2875 -0.2790 -0.2941
19641SOL    HW160364   2.637   4.730   4.859  0.0743 -1.2101  0.3972
19641SOL    HW260365   2.783   4.703   4.885 -0.0276 -1.7013  0.4579
19642SOL     OW60366   7.410   6.055  12.211  0.1390 -0.1255  0.3072
19642SOL    HW160367   7.399   6.135  12.261 -0.2855 -0.6694  1.0935
19642SOL    HW260368   7.494   6.067  12.165 -0.0735  0.8851  0.1673
19643SOL     OW60369   2.092   4.542  11.917 -0.2904 -0.1133  0.5535
19643SOL    HW160370   2.031   4.549  11.843  0.3261  0.1237  0.0461
19643SOL    HW260371   2.141   4.625  11.914  2.4503 -1.6258 -1.2494
19644SOL     OW60372   3.155   5.457   1.760  0.9889 -0.5773  0.5393
19644SOL    HW160373   3.077   5.403   1.749 -0.9547  2.0535  0.2026
19644SOL    HW260374   3.184   5.475   1.671 -0.5549  1.6738  0.3936
19645SOL     OW60375   2.015   0.207   3.954 -0.5092 -0.2329  0.2242
19645SOL    HW160376   1.959   0.184   4.028 -1.7174 -1.3184 -0.9774
19645SOL    HW260377   1.955   0.233   3.884  0.6154  1.1251 -0.2966
19646SOL     OW60378   3.154   4.942   0.991  0.1188  0.0115  0.1504
19646SOL    HW160379   3.106   4.859   0.999  1.1384 -0.5048  1.3716
19646SOL    HW260380   3.122   4.981   0.910 -0.5084 -1.5020 -0.3721
19647SOL     OW60381   0.395   1.502   5.314  0.1207 -0.1606 -0.5533
19647SOL    HW160382   0.409   1.414   5.347 -0.1055 -0.2214 -0.6247
19647SOL    HW260383   0.353   1.490   5.229  0.7018 -0.0066 -0.8710
19648SOL     OW60384   6.927   0.687   2.499 -0.9902 -0.0143 -0.0478
19648SOL    HW160385   6.985   0.657   2.569 -2.5985 -0.0273  1.3335
19648SOL    HW260386   6.956   0.775   2.479  0.8720 -0.7731 -0.9354
19649SOL     OW60387   2.671   1.771   2.674 -0.1472 -0.8165 -0.5112
19649SOL    HW160388   2.637   1.800   2.759 -0.5415 -0.4588 -0.7832
19649SOL    HW260389   2.762   1.747   2.692  0.1406  0.4003 -0.2201
19650SOL     OW60390   6.924   1.372   4.831  0.1824 -0.0149 -0.5673
19650SOL    HW160391   6.830   1.392   4.825  0.0422 -0.7037 -0.8232
19650SOL    HW260392   6.951   1.357   4.740  0.7658  1.1129 -0.5972
19651SOL     OW60393   6.832   3.500   8.399 -0.2652  0.0030  0.3698
19651SOL    HW160394   6.747   3.488   8.440 -0.2180 -2.4595 -0.1164
19651SOL    HW260395   6.814   3.558   8.324 -0.9777  1.6331  1.7403
19652SOL     OW60396   3.952   0.134   6.793 -0.0918 -0.3144 -1.0100
19652SOL    HW160397   3.876   0.159   6.845  0.2349 -1.9194  0.3297
19652SOL    HW260398   3.972   0.212   6.740 -1.4382  0.8126  0.0620
19653SOL     OW60399   2.803   1.470  10.261 -0.1218  0.2436  0.4005
19653SOL    HW160400   2.749   1.484  10.339 -0.6601  1.2256 -0.1294
19653SOL    HW260401   2.740   1.455  10.191  0.2113  2.3194 -0.4016
19654SOL     OW60402   5.807   1.956   1.140  0.4351  0.4527 -0.7576
19654SOL    HW160403   5.835   1.871   1.172  1.3672  1.1748  0.4046
19654SOL    HW260404   5.871   1.979   1.073  0.5889  0.5621 -0.5707
19655SOL     OW60405   7.000   6.914   0.801  0.0733  0.1733 -0.0960
19655SOL    HW160406   7.076   6.947   0.754  0.3083  0.8607  0.7291
19655SOL    HW260407   6.961   6.992   0.842 -1.1142 -0.1551 -0.5452
19656SOL     OW60408   1.605   3.419  10.483 -0.2275  0.5464 -0.5944
19656SOL    HW160409   1.579   3.497  10.436 -0.0398  0.5284 -0.7312
19656SOL    HW260410   1.683   3.387  10.436 -0.6322 -0.0396 -0.8777
19657SOL     OW60411   0.716   0.880   8.333 -0.4119  0.0996  0.5992
19657SOL    HW160412   0.791   0.836   8.374  0.3157 -1.0401 -1.7116
19657SOL    HW260413   0.755   0.931   8.261 -1.7923 -0.1674 -0.3807
19658SOL     OW60414   4.561   4.920  10.836  0.7719 -0.0422 -0.0388
19658SOL    HW160415   4.641   4.966  10.812  1.5580 -0.0895  2.1945
19658SOL    HW260416   4.523   4.973  10.907 -0.4642 -0.7117 -0.1702
19659SOL     OW60417   2.942   7.472   3.581 -0.0536  0.2815  0.2549
19659SOL    HW160418   2.877   7.526   3.624  0.4640  1.4410 -0.3657
19659SOL    HW260419   3.026   7.510   3.606  0.5065 -1.7547  1.8180
19660SOL     OW60420   1.300   0.937  11.216 -0.2362  0.5240 -0.2301
19660SOL    HW160421   1.206   0.922  11.226 -0.0234  0.6018  3.4475
19660SOL    HW260422   1.322   0.996  11.288  2.9696 -1.3333  0.5154
19661SOL     OW60423   4.116   7.649   9.947  0.0273  0.7147  0.6455
19661SOL    HW160424   4.129   7.622  10.038  0.4392  0.4879  0.5171
19661SOL    HW260425   4.028   7.617   9.926  0.5885 -0.7640  0.4189
19662SOL     OW60426   2.193   2.628   5.018  0.2739  0.6963  0.3343
19662SOL    HW160427   2.169   2.540   5.047  2.1194 -0.4840 -1.4759
19662SOL    HW260428   2.112   2.663   4.980 -0.6348  0.0170  1.5739
19663SOL     OW60429   4.102   5.806   8.657 -0.1204 -0.2548 -0.5784
19663SOL    HW160430   4.141   5.721   8.638 -0.5244 -0.7296  0.6023
19663SOL    HW260431   4.117   5.818   8.751 -2.1982 -0.1580 -0.2191
19664SOL     OW60432   2.255   1.787  11.931  0.2261  0.1242 -0.7460
19664SOL    HW160433   2.161   1.771  11.939  0.3348 -0.3624 -0.3988
19664SOL    HW260434   2.272   1.860  11.991  0.2753 -0.6096  0.1525
19665SOL     OW60435   7.920   0.024   3.181 -0.4480  0.4314 -0.6749
19665SOL    HW160436   8.007   0.064   3.172  0.5408 -1.5593 -0.4893
19665SOL    HW260437   7.897   0.037   3.273 -0.6483  1.5104 -0.8661
19666SOL     OW60438   7.877   7.085   0.640  0.0646  0.5729  0.3862
19666SOL    HW160439   7.839   7.031   0.709  1.7034 -0.8690  0.2557
19666SOL    HW260440   7.864   7.175   0.669 -1.4607  0.0674  1.3464
19667SOL     OW60441   6.765   7.600   1.947 -0.2058 -0.1702 -0.2704
19667SOL    HW160442   6.778   7.524   2.005 -0.1502 -0.7214 -0.9848
19667SOL    HW260443   6.733   7.561   1.865 -0.0394  0.5739 -0.6901
19668SOL     OW60444   4.823   1.332  11.239 -0.4813 -0.1314 -0.3087
19668SOL    HW160445   4.862   1.247  11.259 -0.1739  0.1237  0.1970
19668SOL    HW260446   4.853   1.389  11.310 -0.7868  0.3667 -0.5774
19669SOL     OW60447   4.437   2.068   1.081 -0.2877 -0.0714 -0.3438
19669SOL    HW160448   4.470   2.095   1.166 -2.2392 -0.6377  0.6447
19669SOL    HW260449   4.473   2.132   1.020  2.2418 -0.4184  0.6517
19670SOL     OW60450   1.160   0.362   2.198 -0.8516 -0.1415  0.6725
19670SOL    HW160451   1.074   0.390   2.228 -0.2242  3.3926 -0.2668
19670SOL    HW260452   1.144   0.319   2.114 -1.8078 -1.5968  1.5522
19671SOL     OW60453   4.872   5.854   9.995  0.4604 -0.4724 -0.1188
19671SOL    HW160454   4.923   5.902  10.061  0.0754 -3.5953  2.6734
19671SOL    HW260455   4.938   5.827   9.930  1.4442 -0.1111  0.6943
19672SOL     OW60456   4.779   6.844   8.671  0.2717 -0.0313  0.3475
19672SOL    HW160457   4.712   6.884   8.615 -0.2871 -3.0547 -1.3147
19672SOL    HW260458   4.745   6.854   8.760 -0.7724  1.3326 -0.1669
19673SOL     OW60459   5.671   2.533  11.187 -0.0967  0.4998 -0.2309
19673SOL    HW160460   5.765   2.538  11.166 -0.0981  1.4404 -0.0687
19673SOL    HW260461   5.646   2.624  11.205 -0.7793  0.1080  0.8766
19674SOL     OW60462   3.778   6.758   8.399 -0.0724 -0.8447  0.3037
19674SOL    HW160463   3.797   6.693   8.467 -0.1011 -1.5851 -0.3802
19674SOL    HW260464   3.737   6.708   8.329 -0.0430 -0.0922 -0.2610
19675SOL     OW60465   3.484   0.622  10.798  0.4177  0.0745  0.4413
19675SOL    HW160466   3.496   0.658  10.710 -1.2967  0.5430  0.3648
19675SOL    HW260467   3.465   0.529  10.783 -0.3721  0.2593  0.2749
19676SOL     OW60468   4.139   0.648   5.040  0.5093  0.1256  0.4311
19676SOL    HW160469   4.070   0.584   5.056  0.4566  0.0178 -0.1942
19676SOL    HW260470   4.104   0.730   5.075  1.3306 -0.5312  2.9333
19677SOL     OW60471   2.602   6.133   8.096  0.2072  0.0562  0.0212
19677SOL    HW160472   2.634   6.145   8.007  1.4357 -0.3083  0.3903
19677SOL    HW260473   2.679   6.146   8.152 -1.1338  3.6103  1.3238
19678SOL     OW60474   2.203   3.529   8.957 -0.0873 -0.0194 -0.2954
19678SOL    HW160475   2.293   3.560   8.955  0.5350 -0.9891  3.6742
19678SOL    HW260476   2.157   3.583   8.893  3.0314  1.2869 -1.6336
19679SOL     OW60477   6.723   5.289   9.164  0.6049 -0.1232 -0.6352
19679SOL    HW160478   6.677   5.371   9.181  1.4429  0.2514 -0.0930
19679SOL    HW260479   6.807   5.300   9.208  0.8250 -1.1763 -0.7823
19680SOL     OW60480   2.658   4.361   5.894  0.1826 -0.4128 -0.0793
19680SOL    HW160481   2.564   4.378   5.899  0.0885 -1.1906  3.0757
19680SOL    HW260482   2.690   4.377   5.983  3.0796 -0.0820 -1.0767
19681SOL     OW60483   4.268   2.203   1.352 -0.1597 -0.0193  0.0519
19681SOL    HW160484   4.287   2.214   1.445 -1.1902  0.3574  0.2285
19681SOL    HW260485   4.239   2.290   1.324  0.8669  0.0732 -0.8094
19682SOL     OW60486   2.081   3.073   3.892  0.0964  0.0205 -0.1245
19682SOL    HW160487   2.056   3.014   3.963  0.4861  0.7905  0.6701
19682SOL    HW260488   2.105   3.155   3.935  2.2554 -0.1014 -0.9793
19683SOL     OW60489   6.918   0.314   3.432  0.8890 -0.2825 -0.2294
19683SOL    HW160490   6.847   0.264   3.473  2.1544 -1.9588  0.0383
19683SOL    HW260491   6.887   0.332   3.344  0.8018 -2.6151 -0.7506
19684SOL     OW60492   0.360   0.971   8.066 -0.6232  0.0712  0.2396
19684SOL    HW160493   0.364   0.974   8.162 -0.6515  0.2871  0.2332
19684SOL    HW260494   0.266   0.972   8.046 -0.6145  0.1500  0.2047
19685SOL     OW60495   1.739   0.585   0.668 -0.1550 -0.3324  0.1568
19685SOL    HW160496   1.751   0.505   0.615  0.4263  0.3150 -0.7184
19685SOL    HW260497   1.644   0.591   0.680 -0.2295 -1.0045 -0.0022
19686SOL     OW60498   0.046   3.992   5.102 -0.4161  0.2955 -0.6131
19686SOL    HW160499   0.099   3.923   5.143  0.2531  0.8553 -0.5247
19686SOL    HW260500  -0.039   3.986   5.146  0.0603  0.3961  0.3357
19687SOL     OW60501   6.881   2.647   0.545  0.6571 -0.1996  0.2348
19687SOL    HW160502   6.814   2.709   0.515  1.5424 -0.0362 -1.5362
19687SOL    HW260503   6.865   2.569   0.493  1.4507 -0.3811  0.2538
19688SOL     OW60504   2.302   3.342   4.903  0.1142  0.0349 -0.2921
19688SOL    HW160505   2.356   3.420   4.894 -0.5371  0.8317  2.1129
19688SOL    HW260506   2.355   3.280   4.951 -0.6558  0.4011  1.0739
19689SOL     OW60507   7.774   7.230  11.566 -0.0664 -0.0280 -0.2878
19689SOL    HW160508   7.800   7.282  11.490  0.4412  0.7146  0.3764
19689SOL    HW260509   7.700   7.178  11.535 -1.0402  1.5786 -0.8031
19690SOL     OW60510   2.972   0.099   0.912  0.4032  0.1244  0.5286
19690SOL    HW160511   3.020   0.056   0.983 -1.7496 -2.0619  0.8167
19690SOL    HW260512   2.991   0.045   0.835  0.1521  0.5288  0.1812
19691SOL     OW60513   5.691   4.332  11.838  0.4247  0.9035  0.2355
19691SOL    HW160514   5.771   4.334  11.890 -0.7480 -0.3943  2.2113
19691SOL    HW260515   5.670   4.424  11.822  1.3684  1.3025  1.2120
19692SOL     OW60516   1.381   1.237   6.422  0.0649  0.2307 -0.1663
19692SOL    HW160517   1.412   1.163   6.369 -1.1708 -0.5416  0.1372
19692SOL    HW260518   1.356   1.197   6.506  1.9164  1.4173  1.0220
19693SOL     OW60519   7.687   7.199   9.166 -0.5603 -0.1007 -0.2341
19693SOL    HW160520   7.660   7.229   9.253 -0.6574 -0.7675 -0.0268
19693SOL    HW260521   7.680   7.104   9.170  0.1924 -0.1850 -0.7251
19694SOL     OW60522   4.252   1.110   5.757 -0.1914  0.0062 -0.1177
19694SOL    HW160523   4.345   1.127   5.768 -0.2241  0.1438 -0.0407
19694SOL    HW260524   4.219   1.188   5.711 -0.0762 -0.5095 -1.1080
19695SOL     OW60525   2.364   5.433   4.951 -0.0662  1.0011  0.2333
19695SOL    HW160526   2.412   5.436   4.868 -2.2787  2.9526 -1.0942
19695SOL    HW260527   2.278   5.468   4.930 -1.1481  0.3431  3.1288
19696SOL     OW60528   4.576   0.771   7.947 -0.1038  0.1787 -0.2571
19696SOL    HW160529   4.643   0.775   8.016 -1.0375  0.7612  0.6562
19696SOL    HW260530   4.588   0.685   7.907 -2.0509 -2.0116  3.3395
19697SOL     OW60531   7.910   3.060   8.222  0.2641  0.1176  0.9065
19697SOL    HW160532   7.867   3.081   8.305 -0.9554  0.9048  0.1178
19697SOL    HW260533   7.843   3.078   8.155  1.3799  0.0194 -0.2909
19698SOL     OW60534   1.159   5.946   5.152  0.0183 -0.5079 -0.2349
19698SOL    HW160535   1.208   5.920   5.230 -0.0213  2.0474  0.7328
19698SOL    HW260536   1.168   5.871   5.093 -0.3415 -2.7633  2.3378
19699SOL     OW60537   5.682   3.087   8.038  0.1058 -0.4941 -0.6321
19699SOL    HW160538   5.694   3.173   8.078 -0.3889 -0.6995 -0.0236
19699SOL    HW260539   5.709   3.099   7.947 -1.5430  0.7309 -1.0003
19700SOL     OW60540   6.010   1.918   0.806 -0.1383 -0.0676  0.4657
19700SOL    HW160541   6.040   1.900   0.895  0.3028  0.6210  0.4678
19700SOL    HW260542   6.027   2.012   0.795  0.1314 -0.2238 -0.4634
19701SOL     OW60543   4.009   0.826   4.228  0.3478 -0.0943 -0.6150
19701SOL    HW160544   4.081   0.866   4.179 -0.1211  1.6116  0.0117
19701SOL    HW260545   3.952   0.900   4.251 -1.4863 -1.3487 -0.8854
19702SOL     OW60546   5.031   0.965   2.297 -0.1217  0.0412 -0.7809
19702SOL    HW160547   5.114   1.012   2.289 -0.5187  1.2215  1.3081
19702SOL    HW260548   4.964   1.032   2.282 -0.6995 -0.2083  0.5955
19703SOL     OW60549   0.736   5.331  10.776  0.6462 -0.2431  0.2301
19703SOL    HW160550   0.640   5.333  10.782  0.6598 -0.5004  0.5470
19703SOL    HW260551   0.757   5.238  10.767  0.9434 -0.3094  1.4808
19704SOL     OW60552   2.491   3.057   5.850  0.2573 -0.5765 -0.1555
19704SOL    HW160553   2.566   3.105   5.815  0.1948 -0.6939 -0.4548
19704SOL    HW260554   2.419   3.079   5.791 -0.5123  1.3421  1.4129
19705SOL     OW60555   6.950   4.284   2.636  0.0350  0.2406 -0.1597
19705SOL    HW160556   6.935   4.233   2.556  0.3788  1.4432 -1.0089
19705SOL    HW260557   7.040   4.316   2.628 -0.0316  0.6287  0.5644
19706SOL     OW60558   1.703   6.570   2.528  0.1359  0.5524  0.0615
19706SOL    HW160559   1.784   6.537   2.568 -0.4755 -1.8405 -0.4769
19706SOL    HW260560   1.728   6.591   2.438  0.4482  1.2422  0.2988
19707SOL     OW60561   6.874   3.753   4.152 -0.3570 -0.5142  0.9152
19707SOL    HW160562   6.932   3.701   4.097 -0.1714 -0.7935  1.3651
19707SOL    HW260563   6.921   3.761   4.235 -0.1912  0.7397  0.7180
19708SOL     OW60564   3.429   5.209   7.315  0.3022  0.1310 -0.0434
19708SOL    HW160565   3.380   5.214   7.397  0.7763  0.5420  0.2261
19708SOL    HW260566   3.380   5.148   7.261  1.3693 -2.2245  1.4887
19709SOL     OW60567   4.448   4.368  10.177 -0.7415  0.2729 -0.6570
19709SOL    HW160568   4.508   4.429  10.220 -1.5383  0.5190  0.1306
19709SOL    HW260569   4.486   4.282  10.192 -0.3870  0.4549 -0.5016
19710SOL     OW60570   2.254   2.874  11.812  0.4360 -0.1123  0.4540
19710SOL    HW160571   2.209   2.837  11.889 -1.2275  0.5118 -0.1681
19710SOL    HW260572   2.331   2.818  11.801  0.8571 -0.0742  2.6953
19711SOL     OW60573   7.602   7.580  12.275  0.0859  0.0057 -0.6463
19711SOL    HW160574   7.553   7.658  12.300 -2.7568 -1.4786 -1.1843
19711SOL    HW260575   7.597   7.577  12.179  1.3445 -0.1513 -0.7299
19712SOL     OW60576   2.446   0.900   7.055 -0.0589 -0.1551  0.3410
19712SOL    HW160577   2.511   0.842   7.095  0.5486 -0.3672 -0.8745
19712SOL    HW260578   2.489   0.932   6.975 -1.1363  0.3783 -0.0501
19713SOL     OW60579   1.715   7.194   3.996 -0.2784 -0.1648  0.6667
19713SOL    HW160580   1.727   7.223   4.087 -0.8429  0.4530  0.5489
19713SOL    HW260581   1.744   7.103   3.996  0.9663  0.2026  1.1856
19714SOL     OW60582   2.278   1.388  11.066  0.3213 -0.1900 -0.3332
19714SOL    HW160583   2.267   1.347  11.152  1.2317 -1.8264 -0.9417
19714SOL    HW260584   2.321   1.471  11.085  2.9644 -1.6620  0.6975
19715SOL     OW60585   6.433   3.261   7.694 -0.3099  0.7762 -0.1842
19715SOL    HW160586   6.421   3.340   7.642 -1.1509  0.7725  0.0036
19715SOL    HW260587   6.360   3.204   7.669  0.1078  0.1834 -0.0827
19716SOL     OW60588   0.940   7.473   1.600  1.0135  0.4862  0.2406
19716SOL    HW160589   0.984   7.554   1.574  1.5940  0.6687  1.7134
19716SOL    HW260590   0.941   7.419   1.521  1.8559  1.3697 -0.3791
19717SOL     OW60591   3.163   5.257   8.779 -0.1625 -0.1290  0.7053
19717SOL    HW160592   3.214   5.331   8.747  0.3992 -0.7104  0.2289
19717SOL    HW260593   3.221   5.211   8.840 -0.5885 -0.0470  1.1773
19718SOL     OW60594   2.575   1.073   5.181 -0.2239  0.3850 -0.2518
19718SOL    HW160595   2.572   1.073   5.085 -2.6859  1.5029 -0.2714
19718SOL    HW260596   2.570   0.980   5.205 -3.0022  0.1445 -1.2989
19719SOL     OW60597   4.391   3.902   5.408 -0.2494 -0.1068 -0.2109
19719SOL    HW160598   4.487   3.905   5.413 -0.2946  1.9288  0.3145
19719SOL    HW260599   4.365   3.842   5.478  0.6573 -1.6400 -1.1388
19720SOL     OW60600   7.844   6.126   6.491  0.5703  0.1230 -0.1193
19720SOL    HW160601   7.825   6.039   6.456  1.0073  1.0822 -2.9871
19720SOL    HW260602   7.881   6.175   6.417  2.6854  2.0430  2.0065
19721SOL     OW60603   1.419   2.826   2.688 -0.0419  0.5875 -0.1826
19721SOL    HW160604   1.511   2.823   2.713 -0.1485 -2.0600  0.1553
19721SOL    HW260605   1.374   2.855   2.768  0.3426  0.0229  0.2477
19722SOL     OW60606   2.119   5.850   5.904 -0.0232 -0.3481  0.2714
19722SOL    HW160607   2.170   5.909   5.960  0.0186 -0.1388  0.0146
19722SOL    HW260608   2.033   5.891   5.898  0.6148  0.8391 -1.6514
19723SOL     OW60609   3.793   0.742   9.892  0.1783  0.2452 -0.4529
19723SOL    HW160610   3.777   0.799   9.967  2.4436 -1.0946  1.1964
19723SOL    HW260611   3.820   0.801   9.822  2.9066  1.3162  1.3232
19724SOL     OW60612   7.024   5.647  11.297 -0.1206  0.5978 -0.2006
19724SOL    HW160613   6.952   5.648  11.234 -0.0228  0.1131 -0.3178
19724SOL    HW260614   7.095   5.601  11.253 -0.5599 -1.1331  0.8196
19725SOL     OW60615   2.495   3.726   7.488  0.3994  0.0926  0.5460
19725SOL    HW160616   2.585   3.754   7.472  0.0202  0.6672 -0.7949
19725SOL    HW260617   2.495   3.692   7.577  1.5827  1.5626  1.1393
19726SOL     OW60618   0.768   1.830   1.281  0.6502 -0.4914 -0.0125
19726SOL    HW160619   0.835   1.892   1.311 -0.7000  1.8360 -1.4821
19726SOL    HW260620   0.685   1.868   1.312 -0.1379 -2.6071  0.6380
19727SOL     OW60621   6.649   5.649  10.370 -0.1022  0.0421 -0.3819
19727SOL    HW160622   6.677   5.735  10.401 -0.7538 -0.8297  2.9746
19727SOL    HW260623   6.565   5.665  10.327  0.7522  1.2926 -1.6869
19728SOL     OW60624   1.174   0.626   4.392  0.1380 -0.6980 -0.2007
19728SOL    HW160625   1.124   0.664   4.320 -0.9021  0.0206  0.8693
19728SOL    HW260626   1.246   0.579   4.349  0.0555  0.4395 -1.6636
19729SOL     OW60627   5.399   1.722   8.781  0.3617 -0.0723 -0.6592
19729SOL    HW160628   5.490   1.694   8.787  0.4108  0.2596  0.2828
19729SOL    HW260629   5.398   1.784   8.708  1.7377  2.9767  1.6865
19730SOL     OW60630   6.809   6.106  10.346 -0.2654  0.1731 -0.4016
19730SOL    HW160631   6.863   6.084  10.270  0.1181  2.3331 -0.8164
19730SOL    HW260632   6.735   6.153  10.309 -0.9882 -0.2853  0.4317
19731SOL     OW60633   3.367   3.253   3.315 -0.0048  0.1363  0.1044
19731SOL    HW160634   3.410   3.324   3.362 -0.7554  0.4667  0.3206
19731SOL    HW260635   3.321   3.203   3.383  1.0411 -0.9689  0.0448
19732SOL     OW60636   5.889   7.359   1.531 -0.4795 -0.5863  0.4432
19732SOL    HW160637   5.830   7.292   1.565  0.8061 -1.2416  1.4688
19732SOL    HW260638   5.943   7.314   1.466  0.1458 -0.4819  0.8745
19733SOL     OW60639   6.700   1.242   0.914  0.6675 -0.7862 -0.1911
19733SOL    HW160640   6.636   1.189   0.866 -0.2800  0.3706 -0.2644
19733SOL    HW260641   6.676   1.232   1.006  1.5984 -1.8656 -0.0405
19734SOL     OW60642   6.933   7.590   7.859  0.3897  0.5500 -0.4966
19734SOL    HW160643   6.926   7.626   7.948 -2.4823 -1.3372  0.1566
19734SOL    HW260644   6.989   7.514   7.868 -1.7540 -1.0279  0.2950
19735SOL     OW60645   1.761   5.796   0.708  0.0659 -0.4948 -0.6727
19735SOL    HW160646   1.837   5.822   0.655  1.0067  1.1246  1.3269
19735SOL    HW260647   1.696   5.864   0.692 -0.0798 -0.6195 -0.6139
19736SOL     OW60648   6.804   0.796   3.157 -0.6757 -0.3443 -0.0430
19736SOL    HW160649   6.757   0.873   3.188 -1.3935  0.6386 -3.2315
19736SOL    HW260650   6.752   0.722   3.187 -0.4267  0.3811  2.3472
19737SOL     OW60651   0.470   5.058  10.013 -0.0988 -0.1647 -0.1683
19737SOL    HW160652   0.522   5.014   9.945  1.2738 -1.2295  1.4949
19737SOL    HW260653   0.508   5.146  10.020 -0.1318 -0.1109 -0.6445
19738SOL     OW60654   3.638   1.830   3.625  0.4170 -0.0632  0.0428
19738SOL    HW160655   3.661   1.794   3.540 -0.7605  0.2305 -0.4243
19738SOL    HW260656   3.604   1.918   3.605  0.6380  0.2197  0.8705
19739SOL     OW60657   5.724   2.345   1.993  0.1118  0.1330 -0.1195
19739SOL    HW160658   5.715   2.440   1.998 -0.0668  0.1587 -0.8608
19739SOL    HW260659   5.681   2.313   2.072 -0.5743  0.6219 -0.2903
19740SOL     OW60660   3.862   7.164   8.523 -0.3131 -0.6349 -0.3140
19740SOL    HW160661   3.811   7.084   8.533  0.3260 -1.0423 -0.2370
19740SOL    HW260662   3.895   7.183   8.611 -0.3054 -0.3959 -0.3677
19741SOL     OW60663   0.310   3.603   2.843 -0.3754 -0.3090 -0.6471
19741SOL    HW160664   0.217   3.611   2.860 -0.1219 -0.1069  0.8193
19741SOL    HW260665   0.320   3.622   2.750 -1.7341  0.0697 -0.7299
19742SOL     OW60666   4.831   2.971   1.437  0.3756  0.4357  0.1928
19742SOL    HW160667   4.880   2.892   1.417  0.2176  0.6299 -1.0378
19742SOL    HW260668   4.846   2.986   1.531  0.8133 -0.7541  0.3234
19743SOL     OW60669   3.875   2.720   3.185  0.3883 -0.5448  0.5160
19743SOL    HW160670   3.893   2.784   3.117  2.0840 -0.9818  0.5026
19743SOL    HW260671   3.849   2.641   3.138  1.2118 -0.7387  0.3647
19744SOL     OW60672   7.395   1.329   7.503 -0.1622  0.3772 -0.7415
19744SOL    HW160673   7.419   1.258   7.563 -2.4257 -0.4595 -0.7142
19744SOL    HW260674   7.474   1.381   7.495  1.1243 -1.2500  0.5123
19745SOL     OW60675   2.562   0.557   8.366  0.6114 -0.8712 -0.1964
19745SOL    HW160676   2.579   0.647   8.338  0.5745 -0.9095 -0.3467
19745SOL    HW260677   2.483   0.532   8.317 -0.2084 -0.5116  0.8877
19746SOL     OW60678   7.035   4.556   0.785 -0.1506  0.0411  0.4293
19746SOL    HW160679   7.077   4.610   0.718  0.8921  1.0561  1.8420
19746SOL    HW260680   7.098   4.487   0.804 -0.2630  0.0042  0.6679
19747SOL     OW60681   0.592   5.196   9.439  0.0055 -0.5723 -0.0452
19747SOL    HW160682   0.663   5.135   9.460 -0.0962 -0.5287  0.4528
19747SOL    HW260683   0.631   5.283   9.451  0.2648 -0.5217 -1.1396
19748SOL     OW60684   5.881   2.849   7.421  0.1842  0.2801 -0.1666
19748SOL    HW160685   5.879   2.816   7.511 -1.5013 -0.3653 -0.3946
19748SOL    HW260686   5.919   2.778   7.370  0.7457  0.4795 -0.0307
19749SOL     OW60687   0.861   4.262   5.021  0.0998  0.2055  0.4072
19749SOL    HW160688   0.848   4.350   5.056  3.0831  0.6020  0.7208
19749SOL    HW260689   0.799   4.207   5.070 -0.9181  1.9144  1.0987
19750SOL     OW60690   1.456   3.450   0.645 -0.2074  0.5625 -0.1836
19750SOL    HW160691   1.519   3.521   0.640  0.7891 -0.1155  1.6336
19750SOL    HW260692   1.456   3.425   0.738 -2.0267 -0.4748 -0.4120
19751SOL     OW60693   3.773   7.376  11.692 -0.5062 -0.0569  0.2875
19751SOL    HW160694   3.759   7.329  11.774 -0.0438 -1.2248 -0.2908
19751SOL    HW260695   3.836   7.445  11.715 -0.8400  0.0130  1.0374
19752SOL     OW60696   1.167   5.142   2.707  0.3419  0.1126  0.2450
19752SOL    HW160697   1.241   5.201   2.691  0.3904 -0.5449 -2.6024
19752SOL    HW260698   1.158   5.139   2.802  2.3859  2.1403  0.5889
19753SOL     OW60699   2.669   1.034   4.482  0.0437  0.7101 -0.0997
19753SOL    HW160700   2.600   0.968   4.476  0.7085 -0.2465  1.8633
19753SOL    HW260701   2.704   1.041   4.393 -1.1725 -0.3300 -0.6849
19754SOL     OW60702   1.400   7.257   4.845  0.3050 -0.6973 -0.0909
19754SOL    HW160703   1.479   7.226   4.889  0.6429  0.9936  0.5691
19754SOL    HW260704   1.428   7.337   4.800 -0.8437 -0.5274 -0.5262
19755SOL     OW60705   2.698   4.317  12.116 -0.0962  0.1562  0.2430
19755SOL    HW160706   2.679   4.313  12.210 -0.3839 -1.3081  0.1376
19755SOL    HW260707   2.754   4.242  12.099 -1.9915 -1.0271 -1.1720
19756SOL     OW60708   2.610   2.506   4.676  0.5460 -0.4337 -0.3247
19756SOL    HW160709   2.565   2.518   4.760  0.3423  1.6568 -0.6809
19756SOL    HW260710   2.551   2.450   4.625 -0.1197 -0.3739  0.3588
19757SOL     OW60711   2.886   7.878  10.088  0.6245 -0.5676 -0.2775
19757SOL    HW160712   2.962   7.865  10.031  0.1194 -2.0659 -0.6644
19757SOL    HW260713   2.922   7.914  10.169  1.4036  1.1840 -1.3515
19758SOL     OW60714   1.784   2.918   0.899  0.1979  0.2665  0.1913
19758SOL    HW160715   1.733   2.980   0.951  1.7124 -0.8288  3.2070
19758SOL    HW260716   1.833   2.973   0.839  0.8404  2.0019  2.1674
19759SOL     OW60717   0.549   3.629   8.337  0.1467  0.1854 -0.4375
19759SOL    HW160718   0.538   3.568   8.409 -0.0028  1.2640  0.4838
19759SOL    HW260719   0.634   3.607   8.299 -0.9511 -2.1863 -1.7384
19760SOL     OW60720   2.045   6.512  12.037  0.1509 -0.0448  0.2702
19760SOL    HW160721   2.011   6.602  12.042 -0.4362 -0.1651 -1.1255
19760SOL    HW260722   1.993   6.471  11.968  1.3279 -1.0586 -0.0389
19761SOL     OW60723   0.225   5.544   1.845 -0.2580 -0.5221  0.2079
19761SOL    HW160724   0.154   5.483   1.865 -0.2963 -0.8594 -0.8728
19761SOL    HW260725   0.260   5.570   1.930  0.3582 -2.7618  0.6928
19762SOL     OW60726   4.601   7.344   7.531 -0.0497  0.6413 -0.3387
19762SOL    HW160727   4.531   7.408   7.542 -0.4196  0.2883 -0.5850
19762SOL    HW260728   4.659   7.382   7.465  0.3329  1.2179  0.3233
19763SOL     OW60729   3.288   2.537   0.809  0.5166  0.5975 -0.1313
19763SOL    HW160730   3.214   2.593   0.785 -1.3810 -1.4452  0.6208
19763SOL    HW260731   3.279   2.525   0.904  0.2378 -1.7434 -0.4044
19764SOL     OW60732   1.300   3.113   3.424 -0.8972 -0.0073  0.1879
19764SOL    HW160733   1.272   3.163   3.347  3.0646  0.0638 -1.4190
19764SOL    HW260734   1.347   3.038   3.389 -0.3564 -0.8549  2.5447
19765SOL     OW60735   1.396   5.536   8.036 -0.0129 -0.3846 -0.4535
19765SOL    HW160736   1.392   5.500   8.125 -1.9105 -0.0887 -0.3736
19765SOL    HW260737   1.485   5.570   8.028  0.0677 -0.0136  1.5011
19766SOL     OW60738   6.680   5.836   4.277  0.1737 -0.3506  0.3756
19766SOL    HW160739   6.733   5.815   4.200  0.9909  1.9799  0.2238
19766SOL    HW260740   6.600   5.875   4.241 -0.5757 -1.5620  0.6761
19767SOL     OW60741   1.238   6.023   1.773 -0.0563 -0.4000  0.2559
19767SOL    HW160742   1.290   6.031   1.693 -2.0798  2.4868 -0.9390
19767SOL    HW260743   1.163   5.969   1.747 -0.6738  0.4699  0.1762
19768SOL     OW60744   3.936   5.060   6.268 -0.1517  0.3417  0.2585
19768SOL    HW160745   3.969   5.150   6.275  0.5053  0.2425 -1.2513
19768SOL    HW260746   3.914   5.049   6.176 -1.3053 -0.6996  0.6293
19769SOL     OW60747   0.891   3.035   2.432  0.4245 -0.1777  0.7792
19769SOL    HW160748   0.941   2.981   2.371  2.7862  0.8501  1.6473
19769SOL    HW260749   0.884   2.983   2.512  1.0293  0.0412  0.9834
19770SOL     OW60750   7.402   3.714   7.584 -0.0024  0.2049  0.0586
19770SOL    HW160751   7.449   3.793   7.611  1.1337 -0.6808  0.7905
19770SOL    HW260752   7.457   3.677   7.515 -0.5426  0.0659 -0.3034
19771SOL     OW60753   7.042   3.322   4.305 -0.1159  0.1843  0.0228
19771SOL    HW160754   7.047   3.353   4.396 -0.0395  0.2013  0.0129
19771SOL    HW260755   7.105   3.376   4.258 -0.3665  0.3724 -0.0967
19772SOL     OW60756   7.810   0.664  10.215  0.4593 -0.1852  0.9390
19772SOL    HW160757   7.791   0.723  10.288  2.6132 -0.4031  1.7509
19772SOL    HW260758   7.841   0.584  10.257 -3.5618 -2.5778 -0.0523
19773SOL     OW60759   4.715   3.306   2.594  0.3370 -0.2403  0.1501
19773SOL    HW160760   4.641   3.330   2.538  0.7689  0.4121 -0.1575
19773SOL    HW260761   4.737   3.387   2.641  0.9295 -0.3924  0.1414
19774SOL     OW60762   1.005   4.154   3.251  0.0560 -0.3950  0.1608
19774SOL    HW160763   1.029   4.070   3.212 -0.2086 -0.4638  0.1448
19774SOL    HW260764   0.915   4.142   3.281 -1.0172  0.7331 -2.2982
19775SOL     OW60765   3.773   6.209   0.781  0.2734  0.0521 -0.9650
19775SOL    HW160766   3.734   6.163   0.706  1.8900  0.4602 -2.0980
19775SOL    HW260767   3.703   6.266   0.812  0.0309  1.1319 -3.2576
19776SOL     OW60768   7.781   2.418  11.252  0.2688 -0.1641 -0.1131
19776SOL    HW160769   7.805   2.484  11.316  0.5781 -1.2929  0.9766
19776SOL    HW260770   7.685   2.413  11.257  0.2512  0.1293 -0.1412
19777SOL     OW60771   2.907   1.818   3.065  0.8459  0.5228 -0.0631
19777SOL    HW160772   2.981   1.878   3.063 -0.4941  2.2396 -0.4513
19777SOL    HW260773   2.836   1.869   3.103 -0.0375 -1.2219  0.7384
19778SOL     OW60774   3.059   7.800   3.330 -0.1846  0.5196 -0.3567
19778SOL    HW160775   3.005   7.761   3.399 -1.0187  2.7848  0.3737
19778SOL    HW260776   3.110   7.727   3.295  0.9157 -0.6544  3.2180
19779SOL     OW60777   5.313   0.622  11.458 -0.1061 -0.1868  0.1390
19779SOL    HW160778   5.294   0.657  11.545  1.7657 -0.3745  0.6736
19779SOL    HW260779   5.234   0.640  11.407  0.3495  4.1965  0.5526
19780SOL     OW60780   1.473   1.279   7.202 -0.1406 -0.1115  0.3271
19780SOL    HW160781   1.508   1.190   7.212  0.1124 -0.0116  0.3368
19780SOL    HW260782   1.463   1.290   7.107  0.7827  0.2100  0.2536
19781SOL     OW60783   1.382   4.097   9.660  0.0717  0.2430 -0.4196
19781SOL    HW160784   1.434   4.087   9.740  0.6740  0.3510 -0.7963
19781SOL    HW260785   1.293   4.113   9.692  0.1120 -0.7413  0.2255
19782SOL     OW60786   0.422   2.827   9.193  0.3659  0.9715 -0.7008
19782SOL    HW160787   0.389   2.755   9.246 -1.3071  0.5842 -2.1759
19782SOL    HW260788   0.359   2.898   9.206  1.1987  1.6881 -0.4179
19783SOL     OW60789   1.028   3.982   7.781  0.5023  0.2344  0.2110
19783SOL    HW160790   1.074   4.048   7.832  1.7860 -0.5829  0.1926
19783SOL    HW260791   1.070   3.986   7.695 -0.2922  0.2749 -0.1755
19784SOL     OW60792   2.445   1.335   1.643  0.1101  0.4557  0.1505
19784SOL    HW160793   2.418   1.395   1.573 -0.1916  0.4388  0.2503
19784SOL    HW260794   2.513   1.281   1.603 -0.5778 -0.0488 -0.3567
19785SOL     OW60795   4.964   6.697   3.886  0.0013  0.0128 -0.2606
19785SOL    HW160796   4.913   6.651   3.954 -0.1127 -1.7394 -1.4500
19785SOL    HW260797   4.902   6.760   3.849  0.7491  2.8782  2.8210
19786SOL     OW60798   5.106   2.530   7.416  0.3251  0.3877 -0.4535
19786SOL    HW160799   5.186   2.496   7.455  0.0205 -0.2360 -0.3712
19786SOL    HW260800   5.036   2.477   7.453 -0.2535  1.6339  0.3118
19787SOL     OW60801   2.555   5.916   6.641 -0.2243 -0.0972 -0.3498
19787SOL    HW160802   2.461   5.900   6.631 -0.4351  0.3286  0.8515
19787SOL    HW260803   2.585   5.846   6.699  0.2750 -0.4118 -0.9714
19788SOL     OW60804   0.128   1.424  11.386 -0.0421 -0.5178 -0.2212
19788SOL    HW160805   0.059   1.407  11.321 -0.7751  1.2145  0.0384
19788SOL    HW260806   0.112   1.360  11.455 -1.3709 -0.2308 -0.2269
19789SOL     OW60807   3.051   4.903   5.542 -0.3095  0.0525  0.0968
19789SOL    HW160808   3.041   4.972   5.608 -2.1881  0.3311 -0.4006
19789SOL    HW260809   3.108   4.942   5.476  0.5112  0.2593  0.8930
19790SOL     OW60810   1.346   2.930   3.741  0.4279 -0.5613  0.0491
19790SOL    HW160811   1.435   2.947   3.712  0.0830 -0.3193 -0.9079
19790SOL    HW260812   1.349   2.843   3.781  1.2180 -0.2770  0.6231
19791SOL     OW60813   2.320   7.416   3.772 -0.1903 -0.1116  0.2169
19791SOL    HW160814   2.242   7.370   3.803  0.4301  0.3665  2.6663
19791SOL    HW260815   2.320   7.499   3.820  1.9577 -0.2193  0.4995
19792SOL     OW60816   5.769   4.128   0.802 -0.1383  0.1557  0.3738
19792SOL    HW160817   5.840   4.091   0.750 -0.5434 -1.6913  1.0616
19792SOL    HW260818   5.726   4.190   0.743  0.9024 -0.0676 -0.6571
19793SOL     OW60819   5.490   6.583   3.744  0.0564  0.0617  0.1220
19793SOL    HW160820   5.537   6.566   3.826 -0.0373 -0.3589  0.0889
19793SOL    HW260821   5.437   6.661   3.762  0.0395 -0.0273  0.4581
19794SOL     OW60822   3.344   0.990   1.791 -0.3990 -0.1762  0.2135
19794SOL    HW160823   3.400   0.919   1.759  1.4145  1.2607  0.0566
19794SOL    HW260824   3.343   1.054   1.720  0.3907  1.2508  1.4322
19795SOL     OW60825   2.493   3.604   5.368 -0.3590 -0.2500  0.5779
19795SOL    HW160826   2.530   3.584   5.282  1.1487 -1.1437  1.4007
19795SOL    HW260827   2.402   3.627   5.349 -0.4181 -1.6524 -1.1401
19796SOL     OW60828   4.128   7.297   3.026  0.1178 -0.1057 -0.5507
19796SOL    HW160829   4.189   7.226   3.047  0.0551  0.0408  0.1460
19796SOL    HW260830   4.146   7.365   3.091 -0.0886  0.3591 -0.9739
19797SOL     OW60831   3.714   5.358   9.856 -0.3477 -0.0409 -0.0303
19797SOL    HW160832   3.691   5.284   9.913  0.1831 -1.8875 -2.1046
19797SOL    HW260833   3.807   5.375   9.875 -0.2451 -0.4611 -0.1590
19798SOL     OW60834   3.403   6.118   8.913 -0.2736  0.4115  0.1185
19798SOL    HW160835   3.396   6.211   8.935 -0.2735  0.0677  1.6568
19798SOL    HW260836   3.344   6.074   8.974  2.1901 -0.9049  1.7260
19799SOL     OW60837   7.001   0.328  10.004 -0.1849 -0.1843  0.6061
19799SOL    HW160838   7.012   0.417   9.969  0.2211 -0.8053 -0.9062
19799SOL    HW260839   7.031   0.335  10.095 -2.4664  1.7728  1.3342
19800SOL     OW60840   1.528   0.743   7.452  0.5006 -0.2370  0.0536
19800SOL    HW160841   1.613   0.787   7.443  0.0266  0.7859  0.5281
19800SOL    HW260842   1.465   0.803   7.412 -0.2411 -0.1751  1.2681
19801SOL     OW60843   7.788   5.513   2.647 -0.2138  0.2986  0.4424
19801SOL    HW160844   7.777   5.596   2.602  0.0261  0.2957  0.3778
19801SOL    HW260845   7.711   5.507   2.704 -1.5267 -0.5751 -1.3221
19802SOL     OW60846   6.189   1.863   9.336 -0.0424  0.1139  0.2808
19802SOL    HW160847   6.144   1.889   9.256  0.2494  1.1632  0.4328
19802SOL    HW260848   6.262   1.924   9.343  1.5076 -1.6208 -0.0347
19803SOL     OW60849   1.931   4.223   2.843 -0.2864  0.5425  0.5110
19803SOL    HW160850   1.989   4.297   2.864  0.3249  0.2402 -0.0986
19803SOL    HW260851   1.974   4.147   2.881 -0.3931  0.3487  0.2461
19804SOL     OW60852   0.258   2.790   3.471  0.2918  0.4402  0.1938
19804SOL    HW160853   0.165   2.815   3.476  0.2728  0.1736  1.3134
19804SOL    HW260854   0.298   2.861   3.421 -0.6205  0.2330 -0.8820
19805SOL     OW60855   0.863   2.120   7.577 -0.1709  0.2382  0.1776
19805SOL    HW160856   0.892   2.166   7.656  2.5212 -0.1908 -0.4751
19805SOL    HW260857   0.813   2.045   7.610  2.2004 -0.8239  1.6190
19806SOL     OW60858   3.883   1.748   8.223  0.5758 -0.4059 -0.4303
19806SOL    HW160859   3.940   1.708   8.289  0.1361  1.1943  1.0151
19806SOL    HW260860   3.794   1.736   8.258  0.2445 -0.4709 -1.2790
19807SOL     OW60861   3.336   0.586   5.627  0.4113 -0.3723 -0.1864
19807SOL    HW160862   3.403   0.525   5.597  0.4330 -0.0330 -0.8312
19807SOL    HW260863   3.314   0.638   5.550  1.0508  1.0696  0.5759
19808SOL     OW60864   6.484   5.019   2.903 -0.2350  0.1084 -0.1179
19808SOL    HW160865   6.522   4.937   2.937 -2.2197 -0.3288  1.2229
19808SOL    HW260866   6.550   5.085   2.921  1.5391 -1.1852 -1.4534
19809SOL     OW60867   7.074   5.110   9.169  0.5250  0.4213 -0.7230
19809SOL    HW160868   7.032   5.027   9.147  3.3828 -1.0069 -1.2738
19809SOL    HW260869   7.089   5.106   9.263 -0.7711  1.0528 -0.4814
19810SOL     OW60870   2.892   6.665   6.289  0.2317  0.5443 -0.2128
19810SOL    HW160871   2.866   6.700   6.375  0.2311  0.7283 -0.2875
19810SOL    HW260872   2.964   6.605   6.308  0.8203  1.2528 -0.1767
19811SOL     OW60873   3.716   3.494   7.175 -0.9249 -0.3326  0.9543
19811SOL    HW160874   3.732   3.587   7.191  2.0142 -0.5918  0.0920
19811SOL    HW260875   3.643   3.493   7.112  0.1245  1.4997 -0.4051
19812SOL     OW60876   2.041   4.577   8.341 -0.3044 -0.0751  0.1491
19812SOL    HW160877   2.083   4.536   8.417 -0.4609 -2.2692 -0.8657
19812SOL    HW260878   2.085   4.661   8.331  3.1848 -1.7834 -0.2314
19813SOL     OW60879   2.094   4.197   3.734  0.0736  0.3168 -0.2062
19813SOL    HW160880   2.033   4.146   3.681  0.5156 -1.0081  0.5325
19813SOL    HW260881   2.149   4.242   3.670 -0.9133  0.6222 -0.8722
19814SOL     OW60882   0.370   2.656  11.878 -0.2131 -0.2258 -0.8510
19814SOL    HW160883   0.316   2.657  11.799  1.0103 -0.5614 -1.7146
19814SOL    HW260884   0.393   2.748  11.892 -1.8736  0.0799  0.1729
19815SOL     OW60885   1.132   4.829   6.237 -0.1223 -0.7101 -0.3318
19815SOL    HW160886   1.224   4.825   6.264 -0.4057  2.1848  1.5090
19815SOL    HW260887   1.096   4.743   6.261  1.4062 -0.8269  1.8084
19816SOL     OW60888   6.191   0.524   3.283  0.6896  0.6650 -0.1104
19816SOL    HW160889   6.230   0.438   3.293 -0.5599 -0.0418 -0.9640
19816SOL    HW260890   6.124   0.513   3.215 -0.4166  1.9783  0.6871
19817SOL     OW60891   0.077   4.455   3.175 -0.2408 -0.2150  0.5234
19817SOL    HW160892   0.112   4.511   3.106 -0.9718 -0.3340  0.0416
19817SOL    HW260893   0.066   4.513   3.250 -1.0883  0.3367 -0.0024
19818SOL     OW60894   5.730   1.495   1.825 -0.1433  0.3745 -0.4111
19818SOL    HW160895   5.678   1.432   1.875 -0.0784  0.0881 -0.7009
19818SOL    HW260896   5.707   1.477   1.733  0.5786  0.1464 -0.5509
19819SOL     OW60897   0.982   0.109   7.411 -0.2357 -0.1629  0.1222
19819SOL    HW160898   1.034   0.151   7.480  0.7095 -0.2879 -0.4878
19819SOL    HW260899   0.973   0.018   7.439 -1.5169  0.2165  1.0095
19820SOL     OW60900   2.672   6.721   9.986 -0.1472  0.1807  0.2921
19820SOL    HW160901   2.680   6.637   9.941  1.7862  0.7514 -0.5106
19820SOL    HW260902   2.603   6.767   9.937  0.1743 -0.1735 -0.5121
19821SOL     OW60903   7.339   0.672   7.537 -0.1816  0.4042  0.2169
19821SOL    HW160904   7.308   0.705   7.621 -2.3337  0.3384 -0.4835
19821SOL    HW260905   7.312   0.581   7.535 -0.3228  0.4509 -0.6018
19822SOL     OW60906   6.567   4.078   1.769 -0.4556 -0.2982  0.0922
19822SOL    HW160907   6.526   4.142   1.827 -1.5412  0.6398 -1.6275
19822SOL    HW260908   6.660   4.102   1.769 -0.5967  0.2754  0.7029
19823SOL     OW60909   4.432   0.329   1.808 -0.1092 -0.4601 -0.2098
19823SOL    HW160910   4.437   0.336   1.903  1.6579 -3.1957  0.0168
19823SOL    HW260911   4.365   0.262   1.792 -0.2055 -0.2139 -0.8675
19824SOL     OW60912   1.639   7.797   5.859  0.1558  0.0442 -0.2419
19824SOL    HW160913   1.713   7.779   5.917 -0.1526 -0.5054 -0.0217
19824SOL    HW260914   1.660   7.882   5.820 -0.0984  0.9073  1.4151
19825SOL     OW60915   5.938   1.108   8.737  0.2553  0.6615  0.0475
19825SOL    HW160916   5.980   1.194   8.748 -1.2972  1.6459 -1.2479
19825SOL    HW260917   5.905   1.109   8.647  0.8098 -1.6053 -0.2396
19826SOL     OW60918   1.104   7.207  10.899 -0.8578 -0.4749  0.0503
19826SOL    HW160919   1.170   7.149  10.861 -1.4271 -1.1706  0.1061
19826SOL    HW260920   1.043   7.149  10.944 -0.4523  0.2909  1.6668
19827SOL     OW60921   6.502   7.003   1.970  0.5208  0.1741  0.1393
19827SOL    HW160922   6.497   7.092   2.005  1.6145  0.0701  0.5992
19827SOL    HW260923   6.595   6.991   1.948  0.1900 -0.4466 -1.0186
19828SOL     OW60924   2.439   4.036   2.017  0.2486 -0.5866 -0.3771
19828SOL    HW160925   2.429   3.944   1.995  0.9635 -1.2266  1.7615
19828SOL    HW260926   2.358   4.059   2.064  0.7628 -0.6216  0.5602
19829SOL     OW60927   2.169   0.754   5.597 -0.3184 -0.5670 -0.0364
19829SOL    HW160928   2.085   0.724   5.631 -1.6217  3.5805  0.9361
19829SOL    HW260929   2.228   0.750   5.673 -0.5861 -0.3315  0.1865
19830SOL     OW60930   2.324   1.047  10.696  0.1714  0.2589  0.3309
19830SOL    HW160931   2.387   1.072  10.763  0.1035  0.6226  0.2663
19830SOL    HW260932   2.246   1.099  10.717  0.7334  1.7764 -1.0650
19831SOL     OW60933   1.716   5.846   4.025 -0.4971 -0.1629  0.5632
19831SOL    HW160934   1.638   5.884   3.985  0.0731 -0.6228 -1.0708
19831SOL    HW260935   1.776   5.831   3.951  2.3697  2.8981  2.0204
19832SOL     OW60936   5.548   5.705   2.310  0.2575  0.2076  0.5504
19832SOL    HW160937   5.488   5.641   2.271  0.5357  0.3019 -0.0503
19832SOL    HW260938   5.561   5.770   2.241  1.6781 -0.2286  0.3727
19833SOL     OW60939   2.698   6.813   2.523 -0.2426  0.0612  0.0275
19833SOL    HW160940   2.603   6.801   2.517 -0.5062  1.6535  0.4620
19833SOL    HW260941   2.716   6.887   2.465  0.4388  0.9498  1.3225
19834SOL     OW60942   0.720   7.142   5.186 -0.8390 -0.2834  0.1790
19834SOL    HW160943   0.703   7.106   5.099 -0.4576 -0.3424  0.1301
19834SOL    HW260944   0.704   7.069   5.246 -2.3477  0.0784  0.2737
19835SOL     OW60945   4.362   2.161   3.731 -0.1404  0.0473 -0.0293
19835SOL    HW160946   4.317   2.078   3.747  0.0603  0.1925  1.4220
19835SOL    HW260947   4.455   2.140   3.738  0.0191 -0.0557 -2.0405
19836SOL     OW60948   0.077   0.239   7.684  0.8934 -0.1627 -0.0925
19836SOL    HW160949   0.146   0.288   7.639 -0.8574  1.5857 -1.0451
19836SOL    HW260950   0.035   0.304   7.740  0.4882 -1.3901  1.0850
19837SOL     OW60951   2.942   6.417   8.383  0.6989 -0.0578  0.2845
19837SOL    HW160952   3.036   6.409   8.368  1.1316  3.0737  0.6812
19837SOL    HW260953   2.919   6.338   8.433  2.6766 -1.8349 -1.4061
19838SOL     OW60954   3.214   1.228   9.668 -0.2388 -0.1258  0.4502
19838SOL    HW160955   3.230   1.319   9.691  0.7563 -0.1342 -0.1732
19838SOL    HW260956   3.133   1.229   9.618 -0.8244  0.2630  1.3758
19839SOL     OW60957   2.094   5.261   3.701 -0.1396 -0.2977 -0.2031
19839SOL    HW160958   2.188   5.260   3.721 -0.2895 -0.2243  0.5117
19839SOL    HW260959   2.076   5.351   3.675 -0.0939 -0.2180  0.0434
19840SOL     OW60960   1.528   7.200   2.980  0.9564 -0.0205 -0.1697
19840SOL    HW160961   1.455   7.147   3.014  0.6402  1.1705  1.0839
19840SOL    HW260962   1.485   7.268   2.928  0.9411  1.9228  2.2260
19841SOL     OW60963   7.489   3.437   8.137  0.6824 -0.0725 -0.5748
19841SOL    HW160964   7.521   3.517   8.179  3.5088 -0.6094 -1.4769
19841SOL    HW260965   7.441   3.468   8.060 -1.6343  0.7878  1.0800
19842SOL     OW60966   2.913   7.000   9.107  0.1045  0.3940 -0.0453
19842SOL    HW160967   2.891   7.093   9.094  0.0781  0.5344  0.9707
19842SOL    HW260968   2.975   7.000   9.179  1.9917 -0.1884 -1.5863
19843SOL     OW60969   7.289   5.625   2.940  0.5057 -0.0605  0.6000
19843SOL    HW160970   7.372   5.580   2.923  0.4705  0.7695 -2.3325
19843SOL    HW260971   7.311   5.691   3.006  1.8513 -0.7457  0.8841
19844SOL     OW60972   6.137   0.047   2.980 -0.5978  0.3762 -0.2187
19844SOL    HW160973   6.081   0.115   3.018  0.4118  0.3086  1.4356
19844SOL    HW260974   6.198   0.095   2.924 -0.8149  0.6865 -0.1899
19845SOL     OW60975   4.318   4.916  11.947  0.5820 -0.5870  0.1981
19845SOL    HW160976   4.376   4.979  11.989 -0.8145  0.2859  0.9018
19845SOL    HW260977   4.246   4.905  12.009 -0.0625 -1.5611 -0.6869
19846SOL     OW60978   5.802   7.176   3.638  0.2959  0.1483  0.3846
19846SOL    HW160979   5.855   7.240   3.683  0.6012  0.2894 -0.1661
19846SOL    HW260980   5.847   7.161   3.554 -0.8441  0.7236 -0.3555
19847SOL     OW60981   0.160   4.592   2.963  0.6047  0.5218 -0.6554
19847SOL    HW160982   0.206   4.649   3.024  1.6684 -0.0715 -0.8678
19847SOL    HW260983   0.228   4.561   2.903 -0.4446  1.3760 -2.4014
19848SOL     OW60984   3.473   0.231   1.945  0.4564 -0.0822  0.1293
19848SOL    HW160985   3.384   0.228   1.909 -0.1530 -1.3290  1.6373
19848SOL    HW260986   3.468   0.292   2.018  0.5798 -0.9241  0.8504
19849SOL     OW60987   2.678   4.543   7.112 -0.4749 -0.2482  0.0443
19849SOL    HW160988   2.727   4.499   7.182  0.5986 -1.4743 -1.4053
19849SOL    HW260989   2.740   4.606   7.075  0.4613 -2.3957 -2.3655
19850SOL     OW60990   3.954   1.411   7.950  0.0381  0.2514  0.1561
19850SOL    HW160991   4.049   1.399   7.959 -0.0464 -0.2059  0.4444
19850SOL    HW260992   3.939   1.408   7.855  0.0796 -1.5248  0.1835
19851SOL     OW60993   2.411   6.319  11.980  0.4536 -0.5924  0.8278
19851SOL    HW160994   2.399   6.225  11.976  1.2007 -0.6694 -1.8334
19851SOL    HW260995   2.449   6.342  11.895 -1.8818  2.4023  0.4044
19852SOL     OW60996   5.471   3.851  12.017  0.1350  0.3908 -0.2003
19852SOL    HW160997   5.447   3.832  11.926 -0.8624 -2.2454  0.5305
19852SOL    HW260998   5.521   3.774  12.044 -0.1003  0.8660  1.6623
19853SOL     OW60999   7.147   1.024   1.287  0.3297 -0.4720  0.2106
19853SOL    HW161000   7.104   1.109   1.280  1.6711  0.3937  1.9469
19853SOL    HW261001   7.150   0.991   1.197 -0.2565  1.2767 -0.4806
19854SOL     OW61002   4.473   3.850   2.166 -0.5909  0.5608 -0.3631
19854SOL    HW161003   4.532   3.886   2.232 -0.5010  1.5373 -0.9479
19854SOL    HW261004   4.463   3.758   2.190  1.3293  0.3121 -0.3650
19855SOL     OW61005   7.167   5.614   1.938  0.3932  0.1241 -0.4575
19855SOL    HW161006   7.168   5.644   1.847  1.0182  1.1353 -0.1323
19855SOL    HW261007   7.228   5.673   1.983  1.9313 -1.8098  0.1530
19856SOL     OW61008   4.724   2.530   0.099  0.4103 -0.0153 -0.2346
19856SOL    HW161009   4.714   2.550   0.006 -1.1168  0.0249 -0.0829
19856SOL    HW261010   4.646   2.567   0.140  0.9828 -0.1811  1.0437
19857SOL     OW61011   7.418   1.117   1.228 -0.8723  0.5118  0.4262
19857SOL    HW161012   7.322   1.117   1.235 -1.0914  1.0159 -1.8526
19857SOL    HW261013   7.438   1.054   1.160  0.3133  1.3494 -0.0470
19858SOL     OW61014   5.812   1.397   5.669  0.4007  0.2621  0.2903
19858SOL    HW161015   5.866   1.473   5.694  0.5719  0.5708 -0.9409
19858SOL    HW261016   5.728   1.435   5.644  0.1800 -0.0492  0.5576
19859SOL     OW61017   6.203   5.689   3.705  0.4728  0.0041  0.7247
19859SOL    HW161018   6.188   5.746   3.781  0.7298 -0.5144  1.1761
19859SOL    HW261019   6.121   5.692   3.657  0.4819  0.7515  0.7405
19860SOL     OW61020   6.939   0.746   4.332 -0.2498 -0.1345 -0.0123
19860SOL    HW161021   6.977   0.762   4.418 -1.5395  0.7763  0.4179
19860SOL    HW261022   6.995   0.679   4.292  2.0166  1.4079  0.4221
19861SOL     OW61023   2.719   3.133   9.536 -0.1415 -0.1209  0.6636
19861SOL    HW161024   2.661   3.070   9.492  0.5985 -1.4564  1.5190
19861SOL    HW261025   2.726   3.100   9.626  2.3672 -0.3506  0.4596
19862SOL     OW61026   6.203   4.619   7.395 -0.4960 -0.5730  0.5242
19862SOL    HW161027   6.184   4.529   7.366 -1.7399 -0.7388  1.7798
19862SOL    HW261028   6.290   4.613   7.436 -0.4310 -1.1356  0.3108
19863SOL     OW61029   5.240   3.765  11.529  0.2581 -0.2460 -0.0740
19863SOL    HW161030   5.196   3.696  11.579  0.1709  0.1255  0.3674
19863SOL    HW261031   5.206   3.754  11.440 -0.0775 -0.5057  0.0825
19864SOL     OW61032   4.662   2.227   1.624  0.2190 -1.1826  0.4960
19864SOL    HW161033   4.692   2.154   1.570 -1.7783 -0.2658 -2.0681
19864SOL    HW261034   4.741   2.257   1.670  1.4158 -3.8677  0.3851
19865SOL     OW61035   3.143   1.774   8.139  0.0082 -0.1166  0.6087
19865SOL    HW161036   3.111   1.733   8.058 -0.9292  0.0206  0.8944
19865SOL    HW261037   3.175   1.701   8.192 -0.2924 -0.3188  0.5163
19866SOL     OW61038   7.031   7.470   2.985 -0.0926 -0.0202  0.0562
19866SOL    HW161039   7.041   7.481   3.080 -1.8639 -1.4320  0.4520
19866SOL    HW261040   7.022   7.560   2.953 -0.3757  0.4511  1.3536
19867SOL     OW61041   7.844   7.472   8.873 -0.2227  0.1689  0.6127
19867SOL    HW161042   7.826   7.524   8.794 -1.3592 -0.4690  0.4298
19867SOL    HW261043   7.932   7.438   8.860 -0.9878 -1.2817 -1.1787
19868SOL     OW61044   5.242   4.660   8.088  0.2524 -0.6485 -0.4648
19868SOL    HW161045   5.250   4.622   8.001 -0.1564 -0.3465 -0.6351
19868SOL    HW261046   5.164   4.618   8.126 -1.4792  1.4795 -1.4270
19869SOL     OW61047   0.501   4.336   7.347  0.0134 -0.2071  0.1639
19869SOL    HW161048   0.522   4.302   7.434 -0.4794 -1.0727 -0.0405
19869SOL    HW261049   0.432   4.278   7.315 -0.7441  0.9013 -0.2770
19870SOL     OW61050   7.297   5.105   5.450  0.1062  0.0935 -0.2042
19870SOL    HW161051   7.340   5.052   5.517  1.2024  1.7561  0.4708
19870SOL    HW261052   7.227   5.049   5.416  0.1481 -1.1607  1.6404
19871SOL     OW61053   7.907   7.583   9.939 -0.2684  0.0066 -0.3166
19871SOL    HW161054   7.871   7.500   9.908  0.1229  0.2013 -1.3248
19871SOL    HW261055   7.993   7.589   9.898 -0.3192  0.9454 -0.3188
19872SOL     OW61056   3.461   1.605   4.326  0.1490 -0.5708  0.2601
19872SOL    HW161057   3.398   1.601   4.255  0.7690 -1.1480 -0.2715
19872SOL    HW261058   3.503   1.690   4.316  0.0708 -0.5539  0.0745
19873SOL     OW61059   0.431   0.600  10.846  0.5100 -0.2991  0.2033
19873SOL    HW161060   0.379   0.522  10.826 -0.4596 -0.2820  2.3627
19873SOL    HW261061   0.399   0.667  10.786 -0.0145 -1.0340 -0.3471
19874SOL     OW61062   6.285   0.649  11.588  0.1082 -0.4962  0.1518
19874SOL    HW161063   6.287   0.658  11.493 -0.8482 -0.6997  0.1094
19874SOL    HW261064   6.245   0.564  11.604  0.9337 -0.7965  0.7339
19875SOL     OW61065   1.600   4.989   8.514  0.0069 -0.0874 -0.3484
19875SOL    HW161066   1.520   4.998   8.462 -0.0304 -1.9218 -0.6600
19875SOL    HW261067   1.601   4.898   8.541  1.5482  0.1301  0.4218
19876SOL     OW61068   7.482   0.226   9.838  0.0585 -0.4943 -0.2690
19876SOL    HW161069   7.398   0.181   9.846 -0.4428  0.7340  2.1742
19876SOL    HW261070   7.547   0.157   9.852 -0.6544 -0.8419  1.6059
19877SOL     OW61071   1.063   5.095   2.025  0.0047 -0.3775  0.9754
19877SOL    HW161072   1.134   5.113   1.964 -1.2351  0.8208 -0.1697
19877SOL    HW261073   1.013   5.024   1.983 -1.1845  0.8386  0.2272
19878SOL     OW61074   5.376   6.045  10.480 -0.1390  0.0451 -0.0708
19878SOL    HW161075   5.363   5.951  10.464  0.9684  0.0066 -0.8296
19878SOL    HW261076   5.301   6.070  10.535  0.8902 -1.8383  2.3609
19879SOL     OW61077   0.741   2.794  10.406  0.3898  0.6943  0.1500
19879SOL    HW161078   0.834   2.783  10.426  0.5153  1.2274 -0.1065
19879SOL    HW261079   0.702   2.708  10.423  1.1425  0.1187 -0.8922
19880SOL     OW61080   2.439   2.815   9.052 -0.1661  0.4807 -0.2751
19880SOL    HW161081   2.348   2.836   9.031 -0.2347  0.4610 -0.0059
19880SOL    HW261082   2.486   2.898   9.043  0.0064  0.2687 -1.5249
19881SOL     OW61083   3.707   2.887   6.015  0.3972  0.7083 -0.0782
19881SOL    HW161084   3.710   2.799   5.976  0.1808  0.0607  1.3321
19881SOL    HW261085   3.755   2.941   5.952 -0.6356 -0.1147 -1.6756
19882SOL     OW61086   5.936   1.633   2.783  0.6829  0.2318 -0.0091
19882SOL    HW161087   6.009   1.581   2.748  0.5866 -0.4839  0.8011
19882SOL    HW261088   5.973   1.674   2.862 -0.0870 -1.0693  1.0751
19883SOL     OW61089   4.663   5.618   7.150  0.3434 -0.1418 -0.1944
19883SOL    HW161090   4.574   5.601   7.179  0.1127 -0.7575 -1.2120
19883SOL    HW261091   4.693   5.534   7.115  1.1892  0.1546 -0.2056
19884SOL     OW61092   5.362   6.085   8.488 -0.0306 -0.1219  0.3107
19884SOL    HW161093   5.391   5.996   8.507  4.0177  0.9516  0.0670
19884SOL    HW261094   5.353   6.125   8.575  3.6627  0.6077  0.5283
19885SOL     OW61095   5.516   3.335   9.777  0.0388  0.0246 -0.5266
19885SOL    HW161096   5.532   3.260   9.719 -0.6447  0.9981 -2.0186
19885SOL    HW261097   5.425   3.324   9.806  0.0886  0.0410 -0.3592
19886SOL     OW61098   4.887   1.038   4.959 -0.4831  0.3563 -0.5330
19886SOL    HW161099   4.954   0.993   4.908 -1.0170  0.9612 -1.8212
19886SOL    HW261100   4.930   1.062   5.040  0.7459  0.3788 -1.1743
19887SOL     OW61101   0.133   3.489   4.833  0.5451 -0.0217 -0.5525
19887SOL    HW161102   0.147   3.476   4.739 -1.7746  1.7891 -1.2322
19887SOL    HW261103   0.077   3.415   4.859  1.1369 -0.4896 -0.5730
19888SOL     OW61104   1.075   3.970   2.364  0.2287 -0.1721 -0.3862
19888SOL    HW161105   1.054   3.886   2.325  0.5838  0.0710 -1.1235
19888SOL    HW261106   1.032   3.969   2.449  0.2257 -1.0918 -0.3949
19889SOL     OW61107   5.820   6.090   1.481  0.4928 -0.4910 -0.0972
19889SOL    HW161108   5.905   6.048   1.468  1.1584  0.1999  1.6862
19889SOL    HW261109   5.826   6.131   1.568 -1.7644 -0.6589  0.2063
19890SOL     OW61110   3.833   4.639  10.913 -0.3067  0.1353  0.4096
19890SOL    HW161111   3.907   4.587  10.883  0.1373  0.6885  0.5175
19890SOL    HW261112   3.805   4.597  10.994  0.1115  0.1184  0.5483
19891SOL     OW61113   6.412   5.957   1.793 -0.4836 -0.0418  0.3465
19891SOL    HW161114   6.437   5.922   1.707 -0.4804  1.0440 -0.1189
19891SOL    HW261115   6.482   5.928   1.852 -0.4680 -0.7679 -0.0144
19892SOL     OW61116   5.715   2.223   5.237 -0.2965 -0.6151  0.0463
19892SOL    HW161117   5.710   2.153   5.172  1.7331 -0.4195 -0.3721
19892SOL    HW261118   5.684   2.183   5.318 -1.8125 -1.1686 -0.7617
19893SOL     OW61119   2.809   4.895   3.786  0.0621 -0.3042 -0.4799
19893SOL    HW161120   2.893   4.850   3.777  0.4723  0.5367 -1.0584
19893SOL    HW261121   2.755   4.836   3.838  1.0455 -0.8100 -0.0123
19894SOL     OW61122   0.974   7.360   7.017  0.1602 -0.3708  0.1777
19894SOL    HW161123   1.040   7.385   6.953  0.2998 -0.5343  0.2545
19894SOL    HW261124   0.907   7.428   7.011 -0.2796 -0.8770 -0.7901
19895SOL     OW61125   3.915   5.403   1.117  0.2967 -0.6238  0.2565
19895SOL    HW161126   4.007   5.414   1.142 -0.0723  0.5828  1.1526
19895SOL    HW261127   3.897   5.311   1.134  0.7020 -0.3656  2.3521
19896SOL     OW61128   6.690   4.920   4.475 -0.1673  0.1107  0.4347
19896SOL    HW161129   6.683   4.850   4.540  0.6129  1.2482  1.7810
19896SOL    HW261130   6.708   4.999   4.525 -0.1322  1.1493 -1.1242
19897SOL     OW61131   4.530   3.957   8.325  0.7173  0.2668 -0.0857
19897SOL    HW161132   4.611   4.008   8.324  1.5242 -0.9976 -0.1887
19897SOL    HW261133   4.463   4.019   8.297  1.7059  1.2142 -0.4279
19898SOL     OW61134   3.290   0.633   1.654 -0.6355  0.3721  0.3148
19898SOL    HW161135   3.356   0.660   1.718 -0.7794 -1.8988  1.5269
19898SOL    HW261136   3.290   0.702   1.588  2.1341  1.0097  0.8785
19899SOL     OW61137   2.751   5.290   1.872  0.3845 -0.1411 -0.2293
19899SOL    HW161138   2.707   5.205   1.865  1.2506 -0.6244  0.0030
19899SOL    HW261139   2.704   5.335   1.942  0.7478 -0.9596  0.5554
19900SOL     OW61140   1.217   2.001   8.373 -0.0629  0.1887  0.4813
19900SOL    HW161141   1.205   2.019   8.466  2.7405 -0.1275  0.9857
19900SOL    HW261142   1.183   1.913   8.361  0.5517 -0.1985  1.4757
19901SOL     OW61143   2.068   2.091  10.962 -0.1813  0.2090 -0.3891
19901SOL    HW161144   1.982   2.088  11.004  0.8850  0.4960  1.9749
19901SOL    HW261145   2.063   2.026  10.892 -2.5723  0.8521 -0.9209
19902SOL     OW61146   6.080   0.567   0.880 -0.0811 -0.5998  0.2582
19902SOL    HW161147   6.109   0.656   0.861  1.5992 -1.0298  0.6144
19902SOL    HW261148   6.039   0.572   0.966  1.3973 -0.4184  0.9754
19903SOL     OW61149   2.597   0.432   2.543  0.5042 -0.6852 -0.2358
19903SOL    HW161150   2.515   0.439   2.495 -0.0696  1.4039  0.9286
19903SOL    HW261151   2.630   0.522   2.549  2.3298 -1.3274  0.2787
19904SOL     OW61152   2.024   7.775  10.650 -0.0555  0.2670  0.3228
19904SOL    HW161153   1.983   7.787  10.565 -1.6911 -0.4984  0.9747
19904SOL    HW261154   2.116   7.797  10.635  0.1200 -1.7465 -2.0959
19905SOL     OW61155   7.112   7.113   2.353 -0.1157 -0.2124  0.1253
19905SOL    HW161156   7.070   7.053   2.414  0.0168  0.9314  1.3894
19905SOL    HW261157   7.183   7.062   2.314 -0.4603 -1.0889  0.6126
19906SOL     OW61158   4.814   0.920   6.749  0.1275  0.0003 -0.3771
19906SOL    HW161159   4.899   0.883   6.771 -0.7281 -2.2888 -0.5378
19906SOL    HW261160   4.752   0.871   6.804 -1.1734  0.8152 -1.0643
19907SOL     OW61161   5.034   7.218   9.981  0.3214  0.3291  0.2341
19907SOL    HW161162   4.953   7.192  10.024  1.3142  0.1826  2.1380
19907SOL    HW261163   5.015   7.302   9.941 -1.0464 -0.1877 -0.2511
19908SOL     OW61164   2.902   4.202  11.351 -0.5092  0.2171 -0.5052
19908SOL    HW161165   2.881   4.147  11.426  1.0445 -0.2212 -0.3595
19908SOL    HW261166   2.942   4.280  11.389  0.0310  0.1141 -0.8358
19909SOL     OW61167   1.122   6.446   6.477  0.4734 -0.3352 -0.4585
19909SOL    HW161168   1.037   6.421   6.443  0.7355  0.9797 -2.2348
19909SOL    HW261169   1.182   6.379   6.443  0.2355 -0.9761  0.3685
19910SOL     OW61170   1.966   3.598   8.767 -0.5122 -0.1663  0.4155
19910SOL    HW161171   1.892   3.550   8.804 -1.4633  0.1042 -1.0397
19910SOL    HW261172   1.941   3.613   8.675  0.6355  1.3538  0.3166
19911SOL     OW61173   6.415   4.468   6.702  0.5078  0.2446  0.8072
19911SOL    HW161174   6.450   4.428   6.782  0.3746  0.1114  0.7987
19911SOL    HW261175   6.356   4.537   6.733  1.3467  0.9839  0.8274
19912SOL     OW61176   2.063   7.680  10.945 -0.2139 -0.0792  0.2089
19912SOL    HW161177   2.084   7.588  10.962  1.5925  0.1823 -0.3181
19912SOL    HW261178   2.133   7.728  10.988 -1.4083  1.1107  0.8946
19913SOL     OW61179   3.279   2.881   7.232  0.5762  0.5043  0.1112
19913SOL    HW161180   3.302   2.805   7.180 -1.2672 -0.9942  1.3510
19913SOL    HW261181   3.361   2.909   7.272  1.4546 -0.2067 -1.1504
19914SOL     OW61182   7.820   5.279   6.196  0.0083  0.1003 -0.4159
19914SOL    HW161183   7.795   5.247   6.282 -0.7794  0.7186 -0.3963
19914SOL    HW261184   7.884   5.348   6.214 -0.1468  0.2212 -0.3209
19915SOL     OW61185   5.175   3.845  10.467 -0.1607 -0.9801  0.3158
19915SOL    HW161186   5.177   3.759  10.508 -2.4747 -0.2022  2.3530
19915SOL    HW261187   5.227   3.901  10.526 -1.1517 -0.4276  0.6950
19916SOL     OW61188   7.860   4.200   2.561 -0.1794  0.3603 -0.6062
19916SOL    HW161189   7.783   4.145   2.546 -0.9541  0.5950  2.0012
19916SOL    HW261190   7.918   4.146   2.614  0.4774  0.9476 -0.7084
19917SOL     OW61191   6.773   5.729  10.077  0.1187 -0.0494 -0.1449
19917SOL    HW161192   6.825   5.796  10.121  0.2713  0.2689 -0.8015
19917SOL    HW261193   6.689   5.730  10.122  0.3379  0.1336  0.2664
19918SOL     OW61194   7.053   4.008  11.963  0.1939  0.2882 -0.5882
19918SOL    HW161195   7.136   4.013  12.010  0.5695 -0.1028 -1.2005
19918SOL    HW261196   7.003   3.940  12.009 -0.5016  1.6964  0.8564
19919SOL     OW61197   4.447   5.052   9.261 -0.3243  0.6314  0.3102
19919SOL    HW161198   4.390   5.076   9.187 -1.0781 -2.5254 -0.2720
19919SOL    HW261199   4.534   5.041   9.221 -0.4163  0.3882  0.1739
19920SOL     OW61200   4.622   7.802   2.093 -0.5117 -0.6411 -0.1732
19920SOL    HW161201   4.541   7.797   2.143 -0.6502  0.3386 -0.2764
19920SOL    HW261202   4.609   7.742   2.020 -1.1265 -0.5261 -0.1650
19921SOL     OW61203   3.900   1.616   2.191  0.2388  0.4660 -0.2432
19921SOL    HW161204   3.869   1.689   2.243  0.1314 -0.3628  0.8973
19921SOL    HW261205   3.895   1.541   2.250  0.7799 -0.3779 -1.2384
19922SOL     OW61206   1.683   6.727   7.830  0.0158 -0.3139  0.7938
19922SOL    HW161207   1.629   6.696   7.902  1.0253 -0.3238  1.5784
19922SOL    HW261208   1.773   6.703   7.856  0.4776  0.4000 -0.0865
19923SOL     OW61209   4.828   1.471  11.928  0.5534 -0.1522  0.5078
19923SOL    HW161210   4.826   1.378  11.906 -2.8301 -0.2694  0.8350
19923SOL    HW261211   4.808   1.516  11.846  0.0627  0.1521  0.7896
19924SOL     OW61212   7.568   1.743   9.465  0.3569 -0.1080  0.4572
19924SOL    HW161213   7.639   1.799   9.497  0.2199  1.0474 -1.1793
19924SOL    HW261214   7.490   1.777   9.508  0.4899 -0.0594  0.6653
19925SOL     OW61215   0.854   7.007  11.150  0.1782  0.0632 -0.0838
19925SOL    HW161216   0.849   7.048  11.063 -1.2372 -0.4777 -0.2846
19925SOL    HW261217   0.847   6.913  11.132  2.8897 -0.3147  0.4063
19926SOL     OW61218   5.541   0.032   4.858 -0.0978  0.0076 -0.0037
19926SOL    HW161219   5.631   0.065   4.857  0.1450 -0.5894 -2.0965
19926SOL    HW261220   5.526  -0.000   4.769 -2.6630  0.7966  0.0582
19927SOL     OW61221   5.900   5.341   7.085  0.5453  0.3543  0.3854
19927SOL    HW161222   5.914   5.415   7.027  0.5110 -1.7155 -2.4766
19927SOL    HW261223   5.980   5.336   7.137  2.3134  0.1171 -2.1722
19928SOL     OW61224   4.131   3.541   8.114 -0.7045  0.2977  0.9345
19928SOL    HW161225   4.098   3.620   8.072 -0.5420 -1.4599 -2.9264
19928SOL    HW261226   4.226   3.553   8.117 -0.6335  0.1090 -0.1184
19929SOL     OW61227   6.207   5.458   2.223  0.2287 -0.2123 -0.7131
19929SOL    HW161228   6.220   5.395   2.151  0.9092  0.7559 -1.4661
19929SOL    HW261229   6.281   5.518   2.216 -0.6712  0.9812 -0.3441
19930SOL     OW61230   4.394   7.378   2.067 -0.3111  0.7216  0.1922
19930SOL    HW161231   4.318   7.378   2.008 -1.1894 -2.9055  1.1359
19930SOL    HW261232   4.358   7.359   2.153  1.5648 -0.1759  0.8286
19931SOL     OW61233   6.779   3.645   9.196  0.5424  0.0110 -0.5352
19931SOL    HW161234   6.727   3.626   9.274  0.8933 -0.9169 -0.5136
19931SOL    HW261235   6.777   3.563   9.145  1.1036  0.2977 -1.0374
19932SOL     OW61236   4.843   7.007   3.714 -0.0406  0.1496 -0.2696
19932SOL    HW161237   4.826   7.098   3.691  0.9011  0.0379 -1.5213
19932SOL    HW261238   4.933   7.007   3.745 -0.8121  0.0367  2.2298
19933SOL     OW61239   0.093   0.855   5.879 -0.2258 -0.4993  0.2015
19933SOL    HW161240   0.115   0.799   5.954  0.4260  1.4507  1.5311
19933SOL    HW261241   0.172   0.857   5.826 -0.5695 -1.5879 -0.3833
19934SOL     OW61242   1.240   1.556   6.598  0.3589  0.4173  0.8521
19934SOL    HW161243   1.320   1.558   6.650 -0.3995  1.2446  2.0532
19934SOL    HW261244   1.269   1.568   6.508  1.4864  2.4190  1.4305
19935SOL     OW61245   0.090   6.855   9.700 -0.2301 -0.1542  0.0568
19935SOL    HW161246   0.075   6.774   9.748  0.7746 -1.4200 -1.6407
19935SOL    HW261247   0.091   6.829   9.608  0.0384  1.8056 -0.5466
19936SOL     OW61248   4.362   7.068   8.814  0.0098  0.3730 -0.0851
19936SOL    HW161249   4.440   7.015   8.795  0.7748  1.4886 -0.1803
19936SOL    HW261250   4.378   7.101   8.903 -1.5583 -1.4029  0.9230
19937SOL     OW61251   6.022   3.359   6.396  0.3662  0.1235 -0.4221
19937SOL    HW161252   6.014   3.453   6.414 -1.8295  0.1922 -1.4542
19937SOL    HW261253   6.020   3.318   6.483 -1.4214  0.9009 -0.0594
19938SOL     OW61254   7.421   0.070   0.830  0.2379  0.0059 -0.0127
19938SOL    HW161255   7.391  -0.002   0.885 -1.1100  0.4649 -0.1056
19938SOL    HW261256   7.346   0.129   0.826  0.9594  0.8904 -0.8170
19939SOL     OW61257   7.175   3.973  10.732 -0.1069  0.8039 -0.5859
19939SOL    HW161258   7.110   3.987  10.662 -0.2151  0.6477 -0.5160
19939SOL    HW261259   7.165   3.881  10.756  0.1312  0.7835 -0.5642
19940SOL     OW61260   3.466   5.395   2.533  0.8666  0.2424 -0.4898
19940SOL    HW161261   3.487   5.381   2.625 -0.9229  1.4457  0.1407
19940SOL    HW261262   3.484   5.488   2.518  1.8159 -0.0892 -1.5788
19941SOL     OW61263   2.993   7.848  12.335  0.1055 -0.2955  0.3019
19941SOL    HW161264   3.017   7.850  12.427 -0.6661  0.9790  0.4916
19941SOL    HW261265   2.901   7.872  12.333  0.5602  1.6026 -0.9110
19942SOL     OW61266   1.096   4.980   7.372  0.3484  0.0231 -0.0930
19942SOL    HW161267   1.147   5.008   7.295  2.5383  0.1394  1.3110
19942SOL    HW261268   1.108   4.885   7.375  0.8773  0.1050  0.4987
19943SOL     OW61269   6.631   6.766  12.250 -0.4803  0.0998  0.1475
19943SOL    HW161270   6.569   6.835  12.227 -0.0545  0.4590  0.0690
19943SOL    HW261271   6.576   6.692  12.275 -0.9418  0.3757 -0.0361
19944SOL     OW61272   5.298   6.790   3.320  0.2586  0.3422 -0.6529
19944SOL    HW161273   5.344   6.872   3.300 -1.0841  1.4583  0.5964
19944SOL    HW261274   5.343   6.756   3.397  0.4912  0.1511 -0.8687
19945SOL     OW61275   1.396   7.739   1.539  0.3548 -0.5233  0.3451
19945SOL    HW161276   1.391   7.809   1.604  1.3945 -0.9176  0.8603
19945SOL    HW261277   1.442   7.779   1.465 -0.0124 -0.3498  0.2062
19946SOL     OW61278   7.374   5.220   2.482  0.0915  0.0922 -0.1962
19946SOL    HW161279   7.390   5.253   2.570 -0.8025 -0.0897  0.0416
19946SOL    HW261280   7.459   5.227   2.438  0.6583 -0.2561  0.8186
19947SOL     OW61281   6.698   1.598   6.105  0.1487 -0.1726  0.2025
19947SOL    HW161282   6.739   1.663   6.162 -0.7136  2.1417 -1.6570
19947SOL    HW261283   6.758   1.523   6.107  1.7599  1.0724  1.5912
19948SOL     OW61284   7.880   7.590  10.919  0.5571 -0.3686 -0.5211
19948SOL    HW161285   7.904   7.510  10.872  2.1612 -0.4199  0.3371
19948SOL    HW261286   7.923   7.660  10.871  1.1573 -0.2878  0.1245
19949SOL     OW61287   4.391   1.613   0.639  0.0694  0.1597 -0.3342
19949SOL    HW161288   4.416   1.526   0.606 -1.2183 -0.0992 -0.6713
19949SOL    HW261289   4.327   1.595   0.708  0.0198  0.8372 -0.1981
19950SOL     OW61290   6.588   3.286  11.542 -0.1642 -0.2081 -0.0843
19950SOL    HW161291   6.542   3.292  11.458  0.4015 -2.5122 -0.6386
19950SOL    HW261292   6.520   3.304  11.607 -0.6168  1.6194 -0.9915
19951SOL     OW61293   5.698   6.856   2.160 -0.3276 -0.0542  0.8620
19951SOL    HW161294   5.685   6.931   2.217  0.1428  0.0353  0.8501
19951SOL    HW261295   5.778   6.875   2.112 -0.7935 -0.0535  0.0560
19952SOL     OW61296   2.666   4.242   9.742  0.0345 -0.3926  0.2541
19952SOL    HW161297   2.597   4.201   9.690  0.1694 -1.2652  0.7533
19952SOL    HW261298   2.635   4.235   9.832  0.1419  0.4609  0.3718
19953SOL     OW61299   4.570   2.074  11.444 -0.2472 -0.3308 -0.1184
19953SOL    HW161300   4.546   2.140  11.509  1.8877  0.4607 -0.0634
19953SOL    HW261301   4.540   1.991  11.482 -1.6923  0.4148  0.4656
19954SOL     OW61302   6.384   7.840   1.535  0.3076 -0.3270 -0.2525
19954SOL    HW161303   6.424   7.780   1.473  0.1128  1.2153 -1.9323
19954SOL    HW261304   6.438   7.919   1.532 -0.6764  0.3994  0.2601
19955SOL     OW61305   2.829   3.373   5.672 -0.0208  0.1539 -0.7980
19955SOL    HW161306   2.808   3.457   5.712  1.3674  0.7949 -1.3480
19955SOL    HW261307   2.916   3.385   5.634  0.4684 -1.7163 -0.3916
19956SOL     OW61308   7.213   1.356  11.500  0.9286 -0.2344  0.0961
19956SOL    HW161309   7.303   1.341  11.529  0.6035  0.0310  1.3150
19956SOL    HW261310   7.221   1.375  11.407  1.9447 -1.9885 -0.2207
19957SOL     OW61311   1.603   3.130   5.226 -0.0718  0.1922 -0.0144
19957SOL    HW161312   1.613   3.070   5.153 -2.2035  0.0881 -0.2969
19957SOL    HW261313   1.674   3.193   5.216  1.2303 -1.3299 -0.6411
19958SOL     OW61314   3.017   5.383   7.548  0.2339 -0.3538  0.0007
19958SOL    HW161315   3.015   5.329   7.627  2.7851 -1.5610 -0.6545
19958SOL    HW261316   3.060   5.328   7.483 -0.2513  1.2421 -1.7581
19959SOL     OW61317   1.912   7.394  11.798 -0.3922  0.1844  0.5715
19959SOL    HW161318   2.006   7.407  11.788 -0.2631 -1.1338 -0.0875
19959SOL    HW261319   1.884   7.356  11.715 -1.5410  0.6800  0.7131
19960SOL     OW61320   3.146   4.111   7.189 -0.4841  0.4654 -0.1220
19960SOL    HW161321   3.050   4.117   7.188 -0.5055  0.1835 -1.5229
19960SOL    HW261322   3.175   4.201   7.175 -0.6134  0.2139 -2.4755
19961SOL     OW61323   2.601   5.068   4.242 -0.1992 -0.4097  0.1635
19961SOL    HW161324   2.684   5.023   4.255  0.2654  0.3054 -0.2228
19961SOL    HW261325   2.587   5.117   4.323  0.5901  0.7500 -0.3743
19962SOL     OW61326   6.756   0.420   9.137 -0.4051  0.1295  0.0590
19962SOL    HW161327   6.815   0.494   9.146  0.6701 -0.6670 -0.1708
19962SOL    HW261328   6.780   0.381   9.053 -1.8338  0.2646 -0.4436
19963SOL     OW61329   7.925   4.226   7.528  0.2168 -0.1524  0.3354
19963SOL    HW161330   7.954   4.136   7.512  0.6366  0.1452 -0.6124
19963SOL    HW261331   7.833   4.226   7.501  0.8407  0.2737 -1.9217
19964SOL     OW61332   3.349   3.443  12.108  0.0243  0.3730  0.0338
19964SOL    HW161333   3.412   3.483  12.168 -0.7451 -0.7830  1.6758
19964SOL    HW261334   3.277   3.505  12.105  0.8798  1.3664 -1.3011
19965SOL     OW61335   5.135   5.657   5.174 -0.1004  0.2932 -0.3731
19965SOL    HW161336   5.121   5.710   5.096 -1.3759 -0.5594 -0.7612
19965SOL    HW261337   5.136   5.720   5.246 -0.7631  0.9262 -0.8972
19966SOL     OW61338   7.174   7.506  11.108  0.0991  0.0823 -0.2414
19966SOL    HW161339   7.213   7.486  11.023  0.8360  1.4060 -0.2545
19966SOL    HW261340   7.129   7.590  11.094  1.0005  0.7807  0.8673
19967SOL     OW61341   4.301   0.231   0.936 -0.4131  0.6595 -0.0926
19967SOL    HW161342   4.306   0.324   0.959  0.5633  0.2597  1.4631
19967SOL    HW261343   4.217   0.202   0.972  0.7526  0.2227  2.5274
19968SOL     OW61344   5.194   0.015   2.225  0.2207  0.1316 -0.1798
19968SOL    HW161345   5.176  -0.043   2.299 -0.6777  1.7824  0.9754
19968SOL    HW261346   5.284  -0.006   2.199 -0.2617 -2.1329 -0.2139
19969SOL     OW61347   3.280   2.463   4.627  0.0616 -0.3195  0.5615
19969SOL    HW161348   3.327   2.454   4.545 -1.0412 -0.7250 -0.0485
19969SOL    HW261349   3.258   2.556   4.633  0.2242 -0.2736  0.4403
19970SOL     OW61350   7.864   1.260   4.918 -0.2955  0.3386 -0.4522
19970SOL    HW161351   7.937   1.218   4.874  0.1018 -0.7846  1.1694
19970SOL    HW261352   7.902   1.339   4.957 -0.2506  0.4407 -0.7030
19971SOL     OW61353   1.784   7.444   5.388 -0.5529  0.1301 -0.0321
19971SOL    HW161354   1.770   7.536   5.411 -2.3830  0.0623 -0.7027
19971SOL    HW261355   1.877   7.438   5.366 -0.1932  1.5899  0.9659
19972SOL     OW61356   3.046   5.329   6.917 -0.0050 -0.3189 -0.1442
19972SOL    HW161357   2.970   5.386   6.932  0.2167 -0.1947  0.5641
19972SOL    HW261358   3.060   5.332   6.823  0.4127  1.3759 -0.0620
19973SOL     OW61359   4.371   7.336   4.125 -0.1311  0.0245 -0.4118
19973SOL    HW161360   4.425   7.398   4.174  1.1352 -0.8713 -0.6275
19973SOL    HW261361   4.297   7.388   4.094  0.5055  1.2457  0.0487
19974SOL     OW61362   7.450   5.927   0.098 -0.1287  0.0733  0.5786
19974SOL    HW161363   7.377   5.986   0.081 -0.5173 -0.3434  0.7670
19974SOL    HW261364   7.469   5.887   0.013  1.9721  2.4712 -0.2093
19975SOL     OW61365   0.966   2.189   4.696 -0.1618 -0.6453 -0.0400
19975SOL    HW161366   0.982   2.267   4.643  0.8161 -0.8481 -0.0731
19975SOL    HW261367   0.891   2.147   4.655  0.4090 -0.6608 -1.1274
19976SOL     OW61368   1.744   2.487   3.120  0.4312 -0.6361  0.5441
19976SOL    HW161369   1.704   2.416   3.170 -2.1664  0.9873  0.9720
19976SOL    HW261370   1.832   2.496   3.157  1.0494 -3.8063  0.1882
19977SOL     OW61371   4.331   1.698  10.643  0.1675 -0.2844 -0.1284
19977SOL    HW161372   4.244   1.732  10.621  0.4537 -0.0266 -0.8999
19977SOL    HW261373   4.314   1.632  10.710 -0.7223 -0.9139 -0.9340
19978SOL     OW61374   7.861   5.771  12.331 -0.2679 -0.3225  0.3986
19978SOL    HW161375   7.826   5.858  12.349  1.1043 -0.0620  2.1154
19978SOL    HW261376   7.870   5.767  12.236 -0.4659  1.3542  0.2880
19979SOL     OW61377   5.065   4.647   7.663 -0.5624  0.3150 -0.2035
19979SOL    HW161378   5.134   4.688   7.610 -1.9906  3.1648 -0.1025
19979SOL    HW261379   4.984   4.664   7.614 -1.4648 -0.6078  0.9069
19980SOL     OW61380   2.791   1.030   7.943  0.4496 -0.4183 -0.1370
19980SOL    HW161381   2.713   1.085   7.933 -0.1259 -0.0902  4.2677
19980SOL    HW261382   2.768   0.948   7.901 -2.4816 -0.4288  1.2424
19981SOL     OW61383   2.264   1.253   9.108 -0.2005  0.1200  0.5202
19981SOL    HW161384   2.232   1.331   9.152 -1.0392 -0.4663  0.9776
19981SOL    HW261385   2.343   1.228   9.156  0.9105  1.4846 -0.5160
19982SOL     OW61386   6.248   4.676   8.500  0.0787 -0.0739 -0.1111
19982SOL    HW161387   6.188   4.720   8.561 -0.3737 -0.5209 -0.2306
19982SOL    HW261388   6.198   4.666   8.419 -0.9609 -3.5244  0.8005
19983SOL     OW61389   6.559   6.058   5.321 -0.0728  0.1100 -0.6079
19983SOL    HW161390   6.533   6.119   5.390  1.1786  1.5506 -1.3505
19983SOL    HW261391   6.634   6.100   5.279  1.4859 -2.3948 -0.5529
19984SOL     OW61392   3.040   1.037  10.475  0.4806 -0.1548 -0.5227
19984SOL    HW161393   3.093   1.090  10.533  1.3181 -0.0624 -1.3557
19984SOL    HW261394   3.095   0.962  10.453  0.0066 -0.4190 -0.8415
19985SOL     OW61395   6.467   4.641   7.497 -0.4310  0.4603  0.0464
19985SOL    HW161396   6.552   4.677   7.474 -1.5562  0.7455 -4.7158
19985SOL    HW261397   6.480   4.546   7.497 -0.1200  0.4909 -0.9477
19986SOL     OW61398   0.142   3.010   1.150 -0.1348 -0.3947 -0.3849
19986SOL    HW161399   0.070   3.072   1.139  0.7055  0.8972  1.0098
19986SOL    HW261400   0.212   3.045   1.095  0.1580 -0.4066 -0.0213
19987SOL     OW61401   6.390   2.435   4.368  0.0377 -0.0419 -0.2482
19987SOL    HW161402   6.311   2.488   4.368 -0.2767 -0.4718  0.8971
19987SOL    HW261403   6.457   2.493   4.405 -0.4295 -0.5543  1.5293
19988SOL     OW61404   5.787   7.285   0.234  0.2529 -0.1320 -0.1923
19988SOL    HW161405   5.869   7.248   0.267  0.1657 -2.2783 -2.1405
19988SOL    HW261406   5.730   7.210   0.221 -1.5209  1.1622 -0.3065
19989SOL     OW61407   0.419   5.575   4.391  0.2406  0.0998  0.0334
19989SOL    HW161408   0.353   5.559   4.324 -0.5591 -0.8039  0.9914
19989SOL    HW261409   0.490   5.620   4.346 -1.3090  1.7167 -0.9085
19990SOL     OW61410   0.185   2.873   2.656 -0.0351 -0.1380 -0.2233
19990SOL    HW161411   0.272   2.887   2.692  0.3341  0.6152 -1.3718
19990SOL    HW261412   0.132   2.943   2.694  0.1195  0.0517 -0.3527
19991SOL     OW61413   6.030   6.117   4.065  0.1605 -0.2053  0.2676
19991SOL    HW161414   5.994   6.029   4.056 -0.8002  0.3149 -1.1834
19991SOL    HW261415   5.961   6.168   4.107 -0.4959  0.5633 -1.6575
19992SOL     OW61416   2.915   7.773   6.877 -0.6315 -0.1414 -0.0641
19992SOL    HW161417   2.895   7.689   6.836  0.9901 -0.1460 -0.8944
19992SOL    HW261418   2.878   7.766   6.965  0.4222 -2.1343  0.2542
19993SOL     OW61419   5.815   6.153   8.742  0.8196 -0.4159 -0.3905
19993SOL    HW161420   5.724   6.147   8.712  0.7847 -1.3168 -0.1515
19993SOL    HW261421   5.818   6.093   8.817  1.7388 -0.7962 -0.7241
19994SOL     OW61422   2.878   0.755   6.331  0.1063 -0.3115 -0.4047
19994SOL    HW161423   2.917   0.831   6.373 -0.2318 -0.7847  0.7978
19994SOL    HW261424   2.801   0.790   6.285  0.0800  0.1014 -0.0491
19995SOL     OW61425   5.450   4.468   9.987  0.2160  0.1275  0.1217
19995SOL    HW161426   5.537   4.495  10.015  1.0494 -2.4660  0.3439
19995SOL    HW261427   5.406   4.438  10.067  0.1902 -1.1641 -0.3361
19996SOL     OW61428   1.548   6.915  12.241 -0.2137 -0.0988 -0.4933
19996SOL    HW161429   1.555   6.971  12.318 -3.2984  2.3392 -1.7378
19996SOL    HW261430   1.503   6.837  12.272 -1.7805  1.0196  0.1886
19997SOL     OW61431   3.772   3.658  10.893 -0.4843 -0.0293  0.1986
19997SOL    HW161432   3.743   3.586  10.837 -1.0388  0.6462 -0.4023
19997SOL    HW261433   3.696   3.679  10.947 -0.5232  0.4852 -0.0435
19998SOL     OW61434   0.857   1.470   7.131  0.5258  0.0993  0.5256
19998SOL    HW161435   0.840   1.563   7.118 -0.3171 -0.0980  0.1488
19998SOL    HW261436   0.916   1.446   7.060 -0.8497 -0.0852 -0.5798
19999SOL     OW61437   1.780   2.670   7.667  0.1717  0.1377  0.1012
19999SOL    HW161438   1.810   2.733   7.602  2.1349 -0.3672  0.4286
19999SOL    HW261439   1.685   2.679   7.668  0.1232  0.5962 -2.3623
20000SOL     OW61440   0.062   7.092   0.962  0.2707  0.0253 -0.2373
20000SOL    HW161441  -0.016   7.045   0.932 -2.0784  4.9428 -3.1080
20000SOL    HW261442   0.132   7.063   0.903 -0.0566 -2.2397  0.3867
20001SOL     OW61443   4.082   7.748   6.578  0.6412 -0.0055 -0.2638
20001SOL    HW161444   4.103   7.661   6.543  2.0023 -0.0059  0.4879
20001SOL    HW261445   4.003   7.775   6.531 -1.2000 -2.6085  1.1215
20002SOL     OW61446   2.928   7.905   2.854  0.0875  0.0344 -0.4509
20002SOL    HW161447   2.941   7.996   2.829 -0.1392 -0.4588 -2.6209
20002SOL    HW261448   2.890   7.864   2.776 -1.4348 -1.5530  1.0260
20003SOL     OW61449   4.129   2.672   9.162 -0.3402  0.1874  0.0869
20003SOL    HW161450   4.160   2.758   9.192 -0.4000  0.0564  0.5313
20003SOL    HW261451   4.189   2.610   9.203  0.1146  0.0421 -0.7621
20004SOL     OW61452   4.090   4.899   2.726 -0.2942 -0.4052  0.0861
20004SOL    HW161453   4.178   4.904   2.689 -0.1856 -0.2521  0.3550
20004SOL    HW261454   4.046   4.831   2.675  0.1654 -0.8929  0.3251
20005SOL     OW61455   7.642   3.421   2.340 -0.0300 -0.4893 -0.4911
20005SOL    HW161456   7.729   3.398   2.372 -0.7087  0.0512  1.9723
20005SOL    HW261457   7.602   3.337   2.318  0.8712 -0.7861 -1.0539
20006SOL     OW61458   1.583   7.403  12.303 -0.1729  0.1781  0.0313
20006SOL    HW161459   1.653   7.383  12.241  0.2729 -1.0023  0.8854
20006SOL    HW261460   1.573   7.498  12.297  1.1303  0.3074 -0.4847
20007SOL     OW61461   1.948   6.271   5.495  0.2591  0.2545  0.0669
20007SOL    HW161462   1.918   6.288   5.405 -0.0335  1.0268  0.2973
20007SOL    HW261463   1.985   6.183   5.492  0.4145  0.3371 -0.8574
20008SOL     OW61464   2.396   2.175   9.984 -0.2705 -1.0391  0.1878
20008SOL    HW161465   2.440   2.258  10.005  0.9653 -1.4386 -0.6777
20008SOL    HW261466   2.409   2.120  10.061 -2.2727 -0.0218  1.3329
20009SOL     OW61467   5.108   4.888   0.634  0.4221 -0.6587 -0.3752
20009SOL    HW161468   5.055   4.808   0.637  0.6618 -0.7772  1.0565
20009SOL    HW261469   5.140   4.892   0.543 -0.6090 -1.5043 -0.7954
20010SOL     OW61470   4.425   3.813  10.973  0.2313  0.5088 -0.0770
20010SOL    HW161471   4.430   3.905  10.945 -0.1915  0.5056 -0.1705
20010SOL    HW261472   4.485   3.768  10.915  2.5614  1.1163  1.7160
20011SOL     OW61473   5.467   2.188   3.245 -0.4691 -0.5294 -0.0765
20011SOL    HW161474   5.492   2.097   3.230  1.3152  0.2473 -2.4629
20011SOL    HW261475   5.427   2.215   3.162  0.8989  1.4123 -0.1459
20012SOL     OW61476   0.874   2.552   9.232 -0.2049 -0.0115 -0.4311
20012SOL    HW161477   0.925   2.498   9.292  0.2453 -0.9560 -1.6172
20012SOL    HW261478   0.836   2.489   9.170  0.1766  1.0119 -1.7375
20013SOL     OW61479   2.882   7.699   3.085 -0.2558  0.0438 -0.1983
20013SOL    HW161480   2.910   7.701   3.176 -2.6943 -1.2027  0.6606
20013SOL    HW261481   2.832   7.618   3.077  0.9339 -0.5299 -3.0186
20014SOL     OW61482   5.816   5.447   3.527  0.4107  0.0580  0.3004
20014SOL    HW161483   5.810   5.388   3.452 -2.1795  2.6035 -1.7217
20014SOL    HW261484   5.773   5.400   3.598 -3.0204 -0.1006 -1.6528
20015SOL     OW61485   7.179   7.320   7.004  0.2337  0.1514  0.4763
20015SOL    HW161486   7.174   7.301   7.098  0.2467 -0.1691  0.4154
20015SOL    HW261487   7.183   7.415   6.998  2.3597  0.1297  0.9088
20016SOL     OW61488   5.684   4.332  11.210  0.0826 -0.4278 -0.4377
20016SOL    HW161489   5.724   4.366  11.129 -0.3168  0.6026 -0.2141
20016SOL    HW261490   5.740   4.259  11.235  0.1668 -0.8306 -1.6971
20017SOL     OW61491   4.163   4.626   2.295  0.4678  0.7069  0.0932
20017SOL    HW161492   4.241   4.679   2.311  0.9629  0.2076 -0.6094
20017SOL    HW261493   4.106   4.683   2.242  0.6660  0.8083 -0.0103
20018SOL     OW61494   5.207   4.831   7.487  0.8659 -0.2127 -0.1678
20018SOL    HW161495   5.158   4.907   7.519  1.9464  0.5882 -0.3922
20018SOL    HW261496   5.177   4.819   7.397 -0.1165 -0.7549  0.2087
20019SOL     OW61497   6.654   4.223   5.914 -0.2742  0.1210 -0.3492
20019SOL    HW161498   6.684   4.250   5.827 -1.4830  0.1653 -0.7750
20019SOL    HW261499   6.610   4.301   5.949  0.9139  0.3616  0.6543
20020SOL     OW61500   3.324   7.210  11.706 -0.1981 -0.0994  0.5131
20020SOL    HW161501   3.330   7.151  11.780 -2.3271 -0.3931  0.5112
20020SOL    HW261502   3.234   7.241  11.707 -0.0140  0.6380 -1.4009
20021SOL     OW61503   2.235   6.948   3.949 -0.6698  0.3420  0.2251
20021SOL    HW161504   2.244   7.019   4.014  0.3633 -0.3071  0.8222
20021SOL    HW261505   2.313   6.956   3.894 -0.0458 -0.9004  0.8913
20022SOL     OW61506   0.085   4.596   5.296 -0.6989  0.2965 -0.1126
20022SOL    HW161507  -0.008   4.612   5.310 -0.5851  0.0386  1.1087
20022SOL    HW261508   0.088   4.524   5.234 -1.3262 -0.0477  0.2439
20023SOL     OW61509   7.310   7.331   0.354  0.4816 -0.4996 -0.1486
20023SOL    HW161510   7.374   7.399   0.377  1.4835 -1.3952 -0.2045
20023SOL    HW261511   7.254   7.373   0.289  0.2174  0.7120  0.8175
20024SOL     OW61512   5.299   6.745   7.805 -0.2658  0.1082  0.5142
20024SOL    HW161513   5.335   6.830   7.831 -0.2127  0.5605 -0.9657
20024SOL    HW261514   5.302   6.693   7.886  2.1224  0.6630  0.8815
20025SOL     OW61515   7.712   3.042   0.037 -0.0246  0.2325 -0.6294
20025SOL    HW161516   7.638   3.029  -0.022 -0.6150 -1.6379  0.4419
20025SOL    HW261517   7.786   3.000  -0.008 -0.3422 -0.6681 -0.3342
20026SOL     OW61518   2.371   3.606   7.220 -0.9537 -0.4617  0.2820
20026SOL    HW161519   2.314   3.530   7.230  0.3482 -1.4486  0.4223
20026SOL    HW261520   2.397   3.629   7.310  1.1216 -1.8203  0.0881
20027SOL     OW61521   6.299   1.999   3.392 -0.0350 -0.2406  0.5650
20027SOL    HW161522   6.278   2.053   3.468  0.9059 -1.1361  1.4928
20027SOL    HW261523   6.312   1.911   3.428 -1.2628 -1.0421 -0.8702
20028SOL     OW61524   3.624   1.402   3.628 -0.1534  0.1821  0.2602
20028SOL    HW161525   3.655   1.319   3.592  0.6833  0.1583  1.0084
20028SOL    HW261526   3.577   1.444   3.556  0.5950 -0.3285 -0.5330
20029SOL     OW61527   3.279   7.360   2.888  0.3305  0.2329 -0.0798
20029SOL    HW161528   3.226   7.288   2.921 -0.9118  0.7652 -0.8255
20029SOL    HW261529   3.215   7.420   2.849  1.6021  0.2858 -2.2018
20030SOL     OW61530   5.224   7.321  11.129  0.4658  0.8717 -0.1159
20030SOL    HW161531   5.175   7.400  11.108 -0.3637  0.5142  0.4300
20030SOL    HW261532   5.213   7.265  11.051  1.0604  1.2816 -0.5043
20031SOL     OW61533   1.755   7.227   6.861  0.0051 -0.0792 -0.1522
20031SOL    HW161534   1.730   7.262   6.776  0.2494 -1.1411 -0.6804
20031SOL    HW261535   1.685   7.166   6.883 -2.3754  3.1747  2.4535
20032SOL     OW61536   4.877   0.710   4.808  0.5762  0.6005 -0.3722
20032SOL    HW161537   4.965   0.687   4.838 -0.2333 -0.6961  1.1816
20032SOL    HW261538   4.837   0.753   4.883 -0.1352  1.1406 -1.0504
20033SOL     OW61539   6.138   2.434  11.820  0.0184  0.1721 -0.4729
20033SOL    HW161540   6.214   2.393  11.861 -0.3129 -1.5351 -1.4624
20033SOL    HW261541   6.064   2.381  11.847 -0.8800  1.9061  0.5917
20034SOL     OW61542   2.389   2.237   4.920  0.6180 -0.4105  0.0980
20034SOL    HW161543   2.396   2.332   4.914  0.4203 -0.3165  1.1946
20034SOL    HW261544   2.451   2.212   4.989 -1.0685 -0.7954  1.5441
20035SOL     OW61545   6.621   0.730   9.114 -0.0012 -0.1851 -0.2541
20035SOL    HW161546   6.565   0.678   9.057  1.5406 -1.9472 -0.2466
20035SOL    HW261547   6.561   0.764   9.182 -1.4229 -0.0105 -1.5461
20036SOL     OW61548   6.175   0.867  10.283 -0.2671  0.2064  0.4288
20036SOL    HW161549   6.241   0.892  10.218 -0.2685 -0.5810  0.1205
20036SOL    HW261550   6.220   0.805  10.340 -0.4686  0.3837  0.7844
20037SOL     OW61551   0.323   6.120   3.999  0.5383  0.5075  0.5564
20037SOL    HW161552   0.327   6.193   3.938 -2.3223  1.0646  0.8769
20037SOL    HW261553   0.299   6.045   3.945  2.0444  0.0644  0.4504
20038SOL     OW61554   1.285   6.386   0.534  0.1496  0.0470 -0.6588
20038SOL    HW161555   1.258   6.478   0.539  1.3463  0.3456  1.2193
20038SOL    HW261556   1.208   6.336   0.560  0.2447  0.6859  0.9401
20039SOL     OW61557   6.452   1.974   2.252 -0.1720 -0.3359 -0.0420
20039SOL    HW161558   6.517   2.044   2.260 -1.6053  1.1660 -0.7202
20039SOL    HW261559   6.368   2.019   2.258 -1.1746 -1.8379 -1.6124
20040SOL     OW61560   7.645   1.287   1.586 -0.1783  0.1269 -0.7548
20040SOL    HW161561   7.684   1.290   1.498  0.8777 -1.9499 -0.4234
20040SOL    HW261562   7.557   1.322   1.575  0.4110  1.2127 -2.3571
20041SOL     OW61563   2.103   2.374   9.694 -0.1357  0.1552 -0.2554
20041SOL    HW161564   2.136   2.432   9.625 -0.7837 -0.1651 -0.8477
20041SOL    HW261565   2.180   2.356   9.748  0.7773 -0.8404 -1.7966
20042SOL     OW61566   3.969   6.411  10.243 -0.2961  0.5230 -0.4359
20042SOL    HW161567   3.876   6.386  10.239  0.1575 -1.2420 -0.9415
20042SOL    HW261568   3.993   6.430  10.152  0.0401  0.1002 -0.4405
20043SOL     OW61569   5.837   1.351  10.668 -0.1149 -0.1317  0.0557
20043SOL    HW161570   5.920   1.303  10.675  0.6270  1.0843 -0.1011
20043SOL    HW261571   5.847   1.405  10.590  0.4461  2.7517  1.9865
20044SOL     OW61572   2.800   7.083  10.955 -0.5805 -0.3245  0.1518
20044SOL    HW161573   2.892   7.091  10.930 -0.7468  1.4434 -0.0578
20044SOL    HW261574   2.771   7.001  10.915  1.0524 -1.2384  0.7647
20045SOL     OW61575   5.944   1.826   3.456  0.0667  0.2499 -0.6372
20045SOL    HW161576   5.982   1.913   3.465  0.2949  0.1230 -0.3342
20045SOL    HW261577   6.018   1.767   3.468 -0.4894 -0.0695  1.8208
20046SOL     OW61578   6.753   7.521   0.188 -0.1512  0.2950  0.1131
20046SOL    HW161579   6.763   7.432   0.222  1.7106 -0.8267 -2.9292
20046SOL    HW261580   6.838   7.562   0.202 -0.2387  0.7490 -0.6132
20047SOL     OW61581   0.754   3.383   9.326 -0.1773  0.0544 -0.1476
20047SOL    HW161582   0.741   3.363   9.419 -1.6182 -1.1555 -0.5660
20047SOL    HW261583   0.745   3.478   9.320  0.6773  0.2280  1.0438
20048SOL     OW61584   3.623   1.592   3.949 -0.7451 -0.4313  0.0062
20048SOL    HW161585   3.669   1.675   3.964 -0.4871 -0.2281 -1.6902
20048SOL    HW261586   3.682   1.542   3.892 -0.8816 -1.8121  1.0339
20049SOL     OW61587   0.821   2.060   6.037  0.0400 -0.0790 -0.2344
20049SOL    HW161588   0.848   2.065   6.129  1.2562  0.7271 -0.6092
20049SOL    HW261589   0.832   1.968   6.014  1.1066 -0.0390  0.0477
20050SOL     OW61590   6.257   0.776   2.273 -0.0218 -0.2466 -0.4757
20050SOL    HW161591   6.281   0.867   2.259 -3.0388  0.9538  1.2480
20050SOL    HW261592   6.235   0.743   2.185 -0.3223  1.1589 -0.9554
20051SOL     OW61593   7.390   3.073   0.678 -0.3569  0.0341  0.5475
20051SOL    HW161594   7.406   3.110   0.765  1.4172  0.0173  0.2644
20051SOL    HW261595   7.458   3.111   0.623 -1.0561 -0.4643 -0.6956
20052SOL     OW61596   4.550   1.767   4.389 -0.1831 -0.1545  0.2525
20052SOL    HW161597   4.525   1.677   4.367  0.8871 -1.2003  2.9533
20052SOL    HW261598   4.626   1.758   4.446  0.0585  2.5010  0.4881
20053SOL     OW61599   5.418   3.130  11.971  0.4906  0.7508 -0.4832
20053SOL    HW161600   5.350   3.064  11.980  0.0810  1.0717 -1.1843
20053SOL    HW261601   5.447   3.146  12.061  0.2767 -0.0425 -0.2660
20054SOL     OW61602   6.943   0.170   5.166 -0.4814  0.3954  0.1929
20054SOL    HW161603   6.920   0.193   5.076 -0.6098 -0.6660 -0.0565
20054SOL    HW261604   7.031   0.133   5.160 -0.2604  0.8524  0.5873
20055SOL     OW61605   1.500   1.559  11.732  0.4024  0.2680 -0.0836
20055SOL    HW161606   1.498   1.476  11.779 -1.1231  0.6455  0.5830
20055SOL    HW261607   1.449   1.619  11.787  1.1440  1.5474 -0.7372
20056SOL     OW61608   1.643   2.279  12.103 -0.5102 -0.2954  0.4739
20056SOL    HW161609   1.736   2.289  12.083 -0.2107  0.4337  2.0049
20056SOL    HW261610   1.634   2.188  12.132 -0.4521 -0.6119 -0.4887
20057SOL     OW61611   0.482   6.701   7.481  0.2344  0.4557 -0.2965
20057SOL    HW161612   0.474   6.795   7.498  1.7335  0.1585  2.5242
20057SOL    HW261613   0.570   6.690   7.445  0.4691  0.0276  0.3970
20058SOL     OW61614   1.413   5.811   0.039 -0.0449 -0.6221  0.1410
20058SOL    HW161615   1.472   5.855  -0.022  0.1996  0.7804  1.3325
20058SOL    HW261616   1.334   5.794  -0.011 -0.5874  2.2175 -0.1070
20059SOL     OW61617   1.250   4.987  10.290 -0.1423 -0.9037 -0.0296
20059SOL    HW161618   1.270   5.043  10.215 -2.6097 -2.2031 -1.8239
20059SOL    HW261619   1.269   5.040  10.367  3.9093  0.0300 -1.4317
20060SOL     OW61620   3.486   0.817   1.044  0.0169  0.4325  0.0827
20060SOL    HW161621   3.411   0.839   1.099  0.3365 -1.4920  1.3926
20060SOL    HW261622   3.457   0.740   0.994  1.3572 -0.9054  1.2691
20061SOL     OW61623   2.391   6.871  10.466 -0.1681 -0.1527  0.2934
20061SOL    HW161624   2.458   6.820  10.422  0.2646  0.8176 -0.2058
20061SOL    HW261625   2.438   6.944  10.506 -0.9245  0.5990 -0.1453
20062SOL     OW61626   1.672   1.973   4.702  0.1975 -0.4028 -0.1106
20062SOL    HW161627   1.744   1.910   4.699  0.9911  0.4664  0.1936
20062SOL    HW261628   1.594   1.921   4.683  0.6185 -1.8003  1.6557
20063SOL     OW61629   1.032   3.263   6.600 -0.3121 -0.1585 -0.3760
20063SOL    HW161630   1.011   3.355   6.583  1.3944  0.0402 -1.7309
20063SOL    HW261631   1.046   3.225   6.513 -0.0955 -1.4645  0.2051
20064SOL     OW61632   4.475   1.738   7.444 -0.2683 -0.0641 -0.5792
20064SOL    HW161633   4.453   1.796   7.371 -1.1691  0.5771  0.1895
20064SOL    HW261634   4.497   1.655   7.401  1.3342  0.8742 -1.7177
20065SOL     OW61635   3.398   1.569   0.228 -0.5687  0.1502  0.7973
20065SOL    HW161636   3.450   1.615   0.162 -2.7662  0.4603 -0.8357
20065SOL    HW261637   3.457   1.560   0.303  2.2770 -0.8234 -1.3938
20066SOL     OW61638   2.333   3.385   7.944 -0.4950 -0.4498  0.1380
20066SOL    HW161639   2.381   3.312   7.984 -0.5274 -1.0149 -0.8370
20066SOL    HW261640   2.261   3.344   7.897 -0.9329  0.2705  0.1605
20067SOL     OW61641   5.747   3.008  11.387 -0.7687 -0.2483  0.6806
20067SOL    HW161642   5.811   2.940  11.368 -1.4126 -0.4199 -1.0311
20067SOL    HW261643   5.666   2.978  11.344 -1.0549  1.5822 -0.1543
20068SOL     OW61644   5.301   0.506   1.046  0.1087 -0.3803 -0.3215
20068SOL    HW161645   5.306   0.600   1.061  1.2578 -0.3062 -1.0679
20068SOL    HW261646   5.234   0.496   0.978  0.4012 -0.0452 -0.6628
20069SOL     OW61647   2.910   0.906   5.559  0.3670  0.0239 -0.0636
20069SOL    HW161648   2.967   0.966   5.512 -0.6402  1.7699  0.8700
20069SOL    HW261649   2.835   0.958   5.585 -0.5974 -1.6647  0.7269
20070SOL     OW61650   4.548   6.904   4.314  0.7111 -0.4863  0.7291
20070SOL    HW161651   4.502   6.982   4.284  0.5997 -0.7927  0.1018
20070SOL    HW261652   4.587   6.866   4.235  0.3146 -1.3664  0.9408
20071SOL     OW61653   2.597   6.736   1.683  0.2563 -0.1169  0.0371
20071SOL    HW161654   2.545   6.662   1.715 -0.9689  0.5279 -0.3806
20071SOL    HW261655   2.648   6.764   1.759 -0.7217 -0.1962  0.7506
20072SOL     OW61656   4.526   6.200   7.204 -0.0447  0.3095  0.1917
20072SOL    HW161657   4.559   6.214   7.115  1.4851  0.3397  0.7330
20072SOL    HW261658   4.517   6.105   7.210 -0.7748  0.3496 -0.2011
20073SOL     OW61659   2.686   1.018   3.670  0.1711  0.3367 -0.3579
20073SOL    HW161660   2.604   1.034   3.716 -0.6246  0.0515 -1.6446
20073SOL    HW261661   2.724   1.105   3.657 -0.4698  0.5633 -0.7306
20074SOL     OW61662   3.418   4.798   9.778  0.0412  0.2664 -0.0679
20074SOL    HW161663   3.498   4.848   9.762  0.3234 -0.4600 -1.0600
20074SOL    HW261664   3.389   4.772   9.690 -1.0114  0.1025  0.3153
20075SOL     OW61665   4.473   6.645   8.019 -0.0673 -0.0619  0.2173
20075SOL    HW161666   4.426   6.691   8.088  2.8472 -1.1983  3.2765
20075SOL    HW261667   4.410   6.584   7.982 -2.0708  1.4326  1.0259
20076SOL     OW61668   3.868   1.775   1.854  0.3759 -0.0762 -0.4261
20076SOL    HW161669   3.846   1.862   1.888  0.3063  0.1055 -0.9383
20076SOL    HW261670   3.841   1.776   1.763  3.5940  0.5995 -1.4851
20077SOL     OW61671   2.943   1.484   8.679  0.0684  0.9022  0.2200
20077SOL    HW161672   2.979   1.407   8.635 -1.4199 -0.9546  2.0635
20077SOL    HW261673   2.998   1.496   8.757 -1.0126  0.3372  1.0848
20078SOL     OW61674   5.047   2.903   5.558 -0.6070  0.1879 -0.0467
20078SOL    HW161675   5.021   2.944   5.475 -1.1384  1.7353  0.8462
20078SOL    HW261676   5.085   2.974   5.609  0.3483 -0.8970  0.7972
20079SOL     OW61677   1.690   6.957   1.858  0.1109  0.3039 -0.0349
20079SOL    HW161678   1.668   6.888   1.920  1.5359  0.0536  0.2167
20079SOL    HW261679   1.779   6.984   1.882 -0.3124  2.0400 -0.3017
20080SOL     OW61680   7.622   3.355   5.256 -0.1534 -0.8147 -0.1442
20080SOL    HW161681   7.564   3.412   5.204 -0.4127 -0.0454  0.9484
20080SOL    HW261682   7.695   3.336   5.198 -1.0217 -0.9950 -1.2201
20081SOL     OW61683   5.118   6.473   7.941 -0.1333 -0.2224 -0.9426
20081SOL    HW161684   5.113   6.495   8.034 -0.8204  1.7321 -1.3740
20081SOL    HW261685   5.189   6.410   7.934 -0.1141 -0.4460  0.9097
20082SOL     OW61686   5.647   4.701   0.191 -0.4252  0.3006  0.3195
20082SOL    HW161687   5.669   4.677   0.281 -0.4645 -2.1396 -0.2560
20082SOL    HW261688   5.712   4.767   0.167  0.2772  0.1664  1.7809
20083SOL     OW61689   5.178   1.399   5.678  0.4654  0.6294  0.1651
20083SOL    HW161690   5.195   1.387   5.585 -0.3064 -0.3984  0.1428
20083SOL    HW261691   5.184   1.494   5.692  0.1963  0.8293 -1.0002
20084SOL     OW61692   7.115   1.789   6.495  1.0817  0.2595 -0.3030
20084SOL    HW161693   7.143   1.851   6.428  0.2010  1.0093 -0.0048
20084SOL    HW261694   7.196   1.749   6.526  1.5357  0.2021 -1.5144
20085SOL     OW61695   5.290   6.225   3.247  0.8849 -0.1244 -0.6783
20085SOL    HW161696   5.372   6.264   3.275  2.0466 -1.9601 -1.3672
20085SOL    HW261697   5.278   6.257   3.157 -0.5264  2.1456  0.2170
20086SOL     OW61698   2.417   0.768   7.411 -0.1052  0.5987  0.2330
20086SOL    HW161699   2.386   0.741   7.325 -0.5177 -0.6010  0.7294
20086SOL    HW261700   2.454   0.855   7.398 -0.9163  0.7828 -0.9870
20087SOL     OW61701   7.372   2.768  11.013  0.4237 -0.8972 -0.0488
20087SOL    HW161702   7.318   2.705  11.062  0.3775 -1.8280 -1.2199
20087SOL    HW261703   7.443   2.790  11.072 -0.6857 -0.4260  1.1674
20088SOL     OW61704   6.274   3.552  12.047  0.2076 -0.5018  0.1314
20088SOL    HW161705   6.226   3.596  12.116  0.9281 -0.5173  0.6560
20088SOL    HW261706   6.229   3.576  11.966  0.7228  1.4236  0.3597
20089SOL     OW61707   7.275   1.405  12.096 -0.0735  0.1151  0.1459
20089SOL    HW161708   7.288   1.332  12.156  0.7279  0.5542  0.5201
20089SOL    HW261709   7.193   1.385  12.051  0.5852 -1.4957 -0.4336
20090SOL     OW61710   7.461   4.981   6.439  0.1346 -0.2913  0.1826
20090SOL    HW161711   7.516   4.953   6.366 -1.4607  0.6645 -1.4574
20090SOL    HW261712   7.483   5.073   6.451  1.2218 -0.7221  1.7256
20091SOL     OW61713   2.525   7.775   6.553 -0.4667  0.3383  0.3091
20091SOL    HW161714   2.478   7.822   6.621 -0.5994  2.6568 -1.2818
20091SOL    HW261715   2.590   7.837   6.520 -0.4420 -0.6430 -1.6943
20092SOL     OW61716   2.174   5.706   2.168 -0.7022 -0.3173 -0.0670
20092SOL    HW161717   2.098   5.727   2.112 -0.7601  0.4198  0.2815
20092SOL    HW261718   2.160   5.758   2.247 -1.1722 -2.1415  1.1125
20093SOL     OW61719   6.733   7.034   2.955  0.1766  0.0961 -0.0237
20093SOL    HW161720   6.722   7.127   2.935 -1.5734 -0.0234  0.2492
20093SOL    HW261721   6.706   6.988   2.875  2.6089 -0.1878 -0.7533
20094SOL     OW61722   2.173   3.726   3.844  1.0002 -0.0935 -0.3659
20094SOL    HW161723   2.118   3.732   3.766  2.5171  2.2304 -1.3433
20094SOL    HW261724   2.127   3.776   3.911  1.0900  0.4016 -0.6717
20095SOL     OW61725   5.409   7.771   7.230 -0.5801 -0.3313  0.5785
20095SOL    HW161726   5.352   7.711   7.278 -0.7673 -0.8973 -0.3387
20095SOL    HW261727   5.348   7.834   7.191 -0.5672 -0.8043 -0.2166
20096SOL     OW61728   4.977   6.725   4.695  0.1438  0.3106  0.4624
20096SOL    HW161729   4.971   6.634   4.666 -2.0237  0.1045  1.3423
20096SOL    HW261730   5.028   6.769   4.627  0.6152 -1.4181 -0.3391
20097SOL     OW61731   6.656   4.032   7.128  0.0743 -0.1363 -0.1272
20097SOL    HW161732   6.729   3.992   7.175  0.4156  1.9737  1.2633
20097SOL    HW261733   6.647   4.119   7.166 -1.3439  0.7251 -2.2270
20098SOL     OW61734   5.147   5.990   2.556  0.3487 -0.5895  0.1488
20098SOL    HW161735   5.113   5.928   2.491  1.2586 -0.9847  0.0324
20098SOL    HW261736   5.237   6.007   2.528  0.1251  0.7737  0.2051
20099SOL     OW61737   0.798   7.034  11.784  0.7430 -0.1801 -0.0685
20099SOL    HW161738   0.870   7.078  11.739 -0.2243  1.1353 -0.3824
20099SOL    HW261739   0.785   6.953  11.735  0.2032  0.8756 -1.7643
20100SOL     OW61740   6.909   3.071   9.316  0.0541  0.2331 -0.5960
20100SOL    HW161741   6.925   3.118   9.235 -1.8238  1.1563 -0.4698
20100SOL    HW261742   6.862   2.992   9.290  1.6514 -0.7627 -0.6185
20101SOL     OW61743   2.066   1.712   3.257  0.5609  0.2329 -0.1430
20101SOL    HW161744   2.143   1.761   3.229  0.0226  1.9873  1.2807
20101SOL    HW261745   2.098   1.653   3.326  1.6450 -3.2242 -3.2651
20102SOL     OW61746   7.841   7.691   7.828 -0.0484 -0.3869 -0.1758
20102SOL    HW161747   7.844   7.777   7.870  2.2795 -0.6287  0.2512
20102SOL    HW261748   7.931   7.674   7.801 -0.6839 -2.1947 -1.3127
20103SOL     OW61749   6.387   4.843   0.097  0.1636  0.8169 -0.0830
20103SOL    HW161750   6.446   4.882   0.033  0.9239 -0.5432 -0.2444
20103SOL    HW261751   6.431   4.855   0.181  0.2087  0.6666 -0.0848
20104SOL     OW61752   5.260   5.513   3.169 -0.8249 -0.1708 -0.5615
20104SOL    HW161753   5.278   5.527   3.262 -0.7658 -0.4748 -0.5278
20104SOL    HW261754   5.309   5.434   3.146 -0.9241 -0.1570 -0.8242
20105SOL     OW61755   3.237   7.679  11.823  0.2286 -0.3139  0.1225
20105SOL    HW161756   3.225   7.603  11.881  2.6709  0.4036  1.6923
20105SOL    HW261757   3.276   7.642  11.744  0.4728 -0.8279  0.4740
20106SOL     OW61758   2.549   5.495   7.769 -0.3237 -0.0826  0.3057
20106SOL    HW161759   2.523   5.478   7.678  2.7236  2.1380 -1.1453
20106SOL    HW261760   2.500   5.574   7.793  0.7597  0.8423 -0.4125
20107SOL     OW61761   5.164   7.089   2.193  0.6415 -0.2243  0.4377
20107SOL    HW161762   5.151   7.044   2.110 -1.3729  1.1134 -0.0549
20107SOL    HW261763   5.144   7.181   2.173  0.3368  0.1584  2.3505
20108SOL     OW61764   7.779   7.667   1.420 -0.0310  0.2315 -0.4452
20108SOL    HW161765   7.818   7.698   1.338  0.7603  1.2494  0.2874
20108SOL    HW261766   7.818   7.582   1.435 -0.0313  0.1236 -1.0226
20109SOL     OW61767   2.798   2.697   1.479  0.6331  0.3621  0.2597
20109SOL    HW161768   2.775   2.671   1.389 -0.5304  0.2598  0.5677
20109SOL    HW261769   2.876   2.646   1.500 -0.1542 -1.0246 -0.0453
20110SOL     OW61770   6.749   3.883  11.791  0.4871  0.0360  0.6048
20110SOL    HW161771   6.720   3.933  11.867  0.0257 -0.2817  0.6383
20110SOL    HW261772   6.695   3.804  11.791  0.5628 -0.0226  0.0167
20111SOL     OW61773   6.083   3.762   3.022 -0.1281 -0.2227 -0.5238
20111SOL    HW161774   6.074   3.700   2.949 -1.0048 -0.9857  0.2108
20111SOL    HW261775   6.160   3.730   3.071  0.2628  0.0995 -0.9180
20112SOL     OW61776   6.239   4.503   1.265  0.1300  0.0324 -0.1916
20112SOL    HW161777   6.228   4.589   1.224  1.6014  0.1455 -0.4302
20112SOL    HW261778   6.303   4.458   1.209  1.5424 -0.1251  1.4554
20113SOL     OW61779   2.729   2.932   9.319  0.2714 -0.3494  0.1021
20113SOL    HW161780   2.744   2.837   9.322  0.2499 -0.3732 -0.5156
20113SOL    HW261781   2.815   2.970   9.302  0.2638 -0.2579  0.2589
20114SOL     OW61782   6.052   4.363   3.795  0.5023 -0.5093  0.1377
20114SOL    HW161783   6.066   4.373   3.701 -0.8114 -1.4612 -0.1869
20114SOL    HW261784   6.002   4.441   3.821  0.6295 -0.3817 -0.0012
20115SOL     OW61785   7.453   4.724   9.961 -0.3136 -0.2650  0.2652
20115SOL    HW161786   7.429   4.758  10.047 -2.2563  1.8534 -0.9951
20115SOL    HW261787   7.454   4.629   9.971 -2.1368 -0.1315  2.2313
20116SOL     OW61788   7.825   2.403  12.204 -0.9578 -0.1907  0.2138
20116SOL    HW161789   7.772   2.344  12.257 -0.6191  1.0425  2.0346
20116SOL    HW261790   7.889   2.440  12.265  0.9035 -0.3195 -1.5244
20117SOL     OW61791   5.483   5.179   1.138  0.9199  0.0609 -0.0303
20117SOL    HW161792   5.492   5.102   1.082  0.5288 -0.2831  0.3704
20117SOL    HW261793   5.391   5.203   1.130  1.2214  1.0217 -0.8339
20118SOL     OW61794   6.066   3.417   7.637 -0.1898  0.3998  0.1803
20118SOL    HW161795   6.082   3.446   7.727 -0.2768  0.4233  0.1882
20118SOL    HW261796   6.092   3.492   7.583  2.2886 -0.4961  0.0320
20119SOL     OW61797   0.763   7.062   3.788 -0.2871 -0.2770  0.6341
20119SOL    HW161798   0.754   7.013   3.869  1.6892 -1.0965  0.4046
20119SOL    HW261799   0.856   7.055   3.765 -1.0154 -1.4319 -2.5376
20120SOL     OW61800   5.964   1.514   9.255 -0.3038 -0.2438  0.0135
20120SOL    HW161801   6.042   1.490   9.206  1.8079  3.4426  1.1594
20120SOL    HW261802   5.907   1.556   9.191  2.0632  3.7666  0.1884
20121SOL     OW61803   0.834   5.927   0.025 -0.4174 -0.3493  0.2139
20121SOL    HW161804   0.844   5.882   0.109 -0.6117  0.2002  0.5299
20121SOL    HW261805   0.828   6.019   0.047  0.4622 -0.1126 -0.4721
20122SOL     OW61806   1.863   5.089   3.193 -0.0257 -0.0105 -0.3011
20122SOL    HW161807   1.901   5.047   3.271  0.0901  0.6136 -0.0174
20122SOL    HW261808   1.858   5.018   3.128  0.0010 -0.5071  0.2277
20123SOL     OW61809   0.610   7.375   0.743 -0.3158  0.1868  0.0344
20123SOL    HW161810   0.594   7.410   0.830  0.8006  0.7173  0.0416
20123SOL    HW261811   0.681   7.312   0.755 -0.4328 -0.0384 -0.4234
20124SOL     OW61812   4.307   7.291   3.592 -0.5393  0.3400  0.1146
20124SOL    HW161813   4.259   7.253   3.666 -0.0963 -0.2065  0.1314
20124SOL    HW261814   4.278   7.382   3.588  0.2102  0.6868  1.6392
20125SOL     OW61815   1.761   3.444   7.737  0.9047  0.3468  0.0139
20125SOL    HW161816   1.734   3.528   7.776 -1.9174 -0.2258 -0.5217
20125SOL    HW261817   1.731   3.378   7.800 -0.1447 -0.3921 -1.2123
20126SOL     OW61818   3.209   4.899   6.286 -0.4707  0.6603  0.7635
20126SOL    HW161819   3.242   4.906   6.197  0.1829  1.3163  1.0470
20126SOL    HW261820   3.245   4.816   6.319 -0.8109  0.3605  0.3833
20127SOL     OW61821   4.104   7.639   7.602  0.0467  0.2428 -0.2791
20127SOL    HW161822   4.106   7.723   7.647  0.1582  0.5637 -0.8744
20127SOL    HW261823   4.139   7.657   7.515 -0.0209 -0.3991 -0.4469
20128SOL     OW61824   5.687   2.562   1.027 -0.1806 -0.0821 -0.3059
20128SOL    HW161825   5.648   2.602   0.949 -1.6311  0.6111  0.7240
20128SOL    HW261826   5.669   2.624   1.097 -1.2472 -1.8552  1.0871
20129SOL     OW61827   2.262   2.894   2.145  0.0879  0.2670  0.2664
20129SOL    HW161828   2.225   2.919   2.060 -0.3312 -0.8529  0.1020
20129SOL    HW261829   2.339   2.841   2.123 -0.2525 -0.3655  0.5689
20130SOL     OW61830   0.587   2.970   0.102 -0.5327 -0.2531  0.1415
20130SOL    HW161831   0.575   3.065   0.090  0.9746 -0.1155 -0.5516
20130SOL    HW261832   0.577   2.934   0.014  0.0688 -0.5816  0.2029
20131SOL     OW61833   1.431   1.973   2.610 -0.6514  0.1387 -0.2035
20131SOL    HW161834   1.480   1.924   2.544 -0.0409 -2.0323  1.6900
20131SOL    HW261835   1.365   1.911   2.641 -2.4557  1.8942 -0.3632
20132SOL     OW61836   0.946   3.950   2.616  0.0812 -0.6384 -0.1787
20132SOL    HW161837   0.866   3.986   2.578 -0.3026 -0.3056  0.9145
20132SOL    HW261838   0.918   3.911   2.699  1.3622  1.5393  1.3960
20133SOL     OW61839   6.227   2.187   6.206  0.2397 -0.4950  0.3639
20133SOL    HW161840   6.165   2.149   6.145  0.1477 -0.3084  0.3384
20133SOL    HW261841   6.306   2.202   6.154  0.0939 -0.1493  0.2392
20134SOL     OW61842   5.497   0.316   3.747  0.0161 -0.5906 -0.0436
20134SOL    HW161843   5.487   0.411   3.736 -0.7416 -0.5818  0.6001
20134SOL    HW261844   5.510   0.305   3.841 -2.6333 -1.3083  0.3286
20135SOL     OW61845   3.472   2.384   3.459 -0.2169 -0.6199  0.2073
20135SOL    HW161846   3.467   2.323   3.386 -1.9437 -2.5450  1.8156
20135SOL    HW261847   3.540   2.447   3.433 -1.8595 -0.1648 -3.7708
20136SOL     OW61848   3.929   1.935   7.667  0.0193 -0.2466  0.3861
20136SOL    HW161849   3.944   1.990   7.744 -1.8989 -0.4125  0.9295
20136SOL    HW261850   3.960   1.848   7.693 -1.0480 -0.4105  1.1752
20137SOL     OW61851   0.210   5.991   9.839 -0.0820  0.2804 -0.2327
20137SOL    HW161852   0.154   6.035   9.774  0.2159 -1.4626 -1.7506
20137SOL    HW261853   0.293   6.038   9.834  0.8067 -1.3454 -3.0974
20138SOL     OW61854   5.704   4.621   6.407 -0.3700 -0.0428  0.7654
20138SOL    HW161855   5.786   4.607   6.455  0.2821 -0.1710 -0.3630
20138SOL    HW261856   5.651   4.544   6.429  0.1309 -0.3693  0.8568
20139SOL     OW61857   1.599   6.150   0.629  1.0016 -0.4054  0.0367
20139SOL    HW161858   1.602   6.201   0.710  0.4682  0.2175 -0.3309
20139SOL    HW261859   1.566   6.064   0.656  1.3815 -0.3920  0.5681
20140SOL     OW61860   2.562   0.461  10.037 -0.2965 -0.2303  0.5888
20140SOL    HW161861   2.476   0.490  10.069 -0.9761 -0.6450 -0.7581
20140SOL    HW261862   2.625   0.504  10.094 -1.3878  0.5100  1.2744
20141SOL     OW61863   6.671   0.302   4.984  0.3493  0.0754  0.1847
20141SOL    HW161864   6.754   0.266   4.950  0.3326  0.2801 -0.0783
20141SOL    HW261865   6.694   0.341   5.068  0.5445  0.2253  0.0631
20142SOL     OW61866   6.315   5.376   5.544 -0.3201  0.3195 -0.5018
20142SOL    HW161867   6.347   5.288   5.524  2.3032  1.2058 -0.6607
20142SOL    HW261868   6.343   5.392   5.634 -1.0426  0.8881 -0.3661
20143SOL     OW61869   0.671   2.872   9.247  0.0576  0.3282 -0.4132
20143SOL    HW161870   0.590   2.864   9.198  0.7381 -1.6476 -1.3342
20143SOL    HW261871   0.691   2.965   9.246 -1.3060  0.6372 -1.6442
20144SOL     OW61872   2.020   3.345   8.544  0.2625 -0.1645  0.1380
20144SOL    HW161873   1.963   3.323   8.470  0.9061 -2.7223  0.2995
20144SOL    HW261874   2.083   3.407   8.508 -0.4001 -0.1390 -1.0304
20145SOL     OW61875   6.772   1.800   2.700  0.3783  0.5591 -0.3343
20145SOL    HW161876   6.815   1.825   2.618  0.3920  0.8268 -0.2459
20145SOL    HW261877   6.720   1.877   2.723  1.0219  0.7990  0.3486
20146SOL     OW61878   7.340   0.122   0.032  0.3570 -0.2024  0.1345
20146SOL    HW161879   7.307   0.210   0.053  1.2656  0.0499  0.5698
20146SOL    HW261880   7.282   0.062   0.079 -0.9749  0.0961 -1.0793
20147SOL     OW61881   3.252   6.753   6.499 -0.1801  0.4083 -0.4635
20147SOL    HW161882   3.307   6.775   6.575 -1.2929 -0.3509  0.6039
20147SOL    HW261883   3.279   6.815   6.431  2.3299 -0.2420 -0.1648
20148SOL     OW61884   4.517   2.505   7.628 -0.2691 -0.0469  0.1319
20148SOL    HW161885   4.574   2.485   7.702  1.1264 -0.5317 -1.0224
20148SOL    HW261886   4.503   2.420   7.586 -2.4059 -0.0453  0.7319
20149SOL     OW61887   0.685   0.934   4.466  0.1510 -0.2029  0.2512
20149SOL    HW161888   0.718   1.023   4.451  0.1983 -0.3379 -0.4801
20149SOL    HW261889   0.678   0.896   4.379  1.0321 -1.2477  0.6035
20150SOL     OW61890   2.548   7.077  10.056 -0.5151  0.5932  0.2903
20150SOL    HW161891   2.507   6.992  10.036 -1.0758  0.6418  1.2060
20150SOL    HW261892   2.638   7.067  10.025 -0.6402 -0.2535  0.1569
20151SOL     OW61893   1.385   4.880   6.374  0.1053  0.1178  0.3105
20151SOL    HW161894   1.406   4.938   6.448 -1.7326 -1.0345  1.8364
20151SOL    HW261895   1.385   4.792   6.412 -2.6731 -0.3511 -0.6012
20152SOL     OW61896   1.803   3.098   6.489 -0.5799 -0.0677  0.0103
20152SOL    HW161897   1.758   3.148   6.557 -1.0253  2.7527 -2.1915
20152SOL    HW261898   1.733   3.053   6.442 -0.4377 -0.6527  0.3466
20153SOL     OW61899   6.084   5.814   0.898 -0.2219 -0.3138 -0.3168
20153SOL    HW161900   6.066   5.899   0.857 -0.7959  0.1709  0.8887
20153SOL    HW261901   6.094   5.834   0.991 -2.2816 -1.8300  0.2839
20154SOL     OW61902   3.132   2.403   7.969  0.0409  0.1682  0.3362
20154SOL    HW161903   3.076   2.470   8.010  0.0946  2.0012 -2.3071
20154SOL    HW261904   3.074   2.328   7.956 -0.5437  0.3572  1.6311
20155SOL     OW61905   3.412   0.403  12.087  0.0986 -0.7129 -0.0918
20155SOL    HW161906   3.397   0.309  12.093  1.2282 -0.9338 -0.4747
20155SOL    HW261907   3.497   0.417  12.129 -0.9306  0.4356  1.7893
20156SOL     OW61908   1.072   2.380   8.697 -0.0252  0.5421 -0.0927
20156SOL    HW161909   1.023   2.441   8.753  0.8487  1.1012  0.0712
20156SOL    HW261910   1.130   2.334   8.757  0.5582  0.7881 -0.4628
20157SOL     OW61911   2.168   4.233  10.546 -0.4637 -0.0376  0.1539
20157SOL    HW161912   2.099   4.183  10.590  0.2670  0.4456  1.9105
20157SOL    HW261913   2.186   4.183  10.467 -1.9884 -0.8072  0.2475
20158SOL     OW61914   4.533   6.627   4.069 -0.3924 -0.0732 -0.2129
20158SOL    HW161915   4.515   6.537   4.039 -1.1408 -0.2086  0.5930
20158SOL    HW261916   4.626   6.627   4.090 -0.7356 -1.2016  1.4907
20159SOL     OW61917   2.132   5.566   5.282 -0.6829 -0.8697  0.0924
20159SOL    HW161918   2.046   5.567   5.323 -0.6773  0.3502  0.1095
20159SOL    HW261919   2.121   5.513   5.204 -1.6082 -0.2504 -0.2152
20160SOL     OW61920   5.982   5.779  11.060  0.7625  0.2366 -0.5974
20160SOL    HW161921   5.981   5.832  11.140 -2.0876 -1.8829  0.9670
20160SOL    HW261922   5.948   5.837  10.993  0.1910  1.1831  0.4686
20161SOL     OW61923   2.794   5.862   4.852 -0.3993  0.2837  0.1418
20161SOL    HW161924   2.865   5.868   4.787 -1.3541 -0.3510 -1.0102
20161SOL    HW261925   2.837   5.831   4.932  0.9226  1.6996  0.0273
20162SOL     OW61926   6.994   4.124   5.302 -0.4443 -0.5883 -0.2025
20162SOL    HW161927   6.932   4.173   5.356 -1.7527 -0.0236 -2.1045
20162SOL    HW261928   6.950   4.040   5.285  0.9098 -1.6771  1.3521
20163SOL     OW61929   4.287   3.267   4.659  0.0715 -0.3054 -1.0483
20163SOL    HW161930   4.213   3.325   4.676  0.2739 -0.7817  1.8845
20163SOL    HW261931   4.357   3.326   4.631 -0.4025  0.5900 -0.4062
20164SOL     OW61932   3.502   0.969   4.499 -0.4901  0.5056  0.5078
20164SOL    HW161933   3.432   1.002   4.556 -2.2887 -0.1084 -1.1945
20164SOL    HW261934   3.483   1.008   4.414  0.2447 -1.0163 -0.3915
20165SOL     OW61935   0.930   2.387   3.963  0.4710  0.1238  0.2264
20165SOL    HW161936   0.968   2.317   3.910  0.0378  0.2953 -0.3164
20165SOL    HW261937   0.883   2.341   4.033  0.8437 -0.1067  0.3277
20166SOL     OW61938   1.845   5.244   6.288 -0.7563 -0.2949 -0.2133
20166SOL    HW161939   1.750   5.234   6.290 -1.1293  1.5916 -3.0413
20166SOL    HW261940   1.875   5.176   6.228 -0.2146 -1.1561  0.9942
20167SOL     OW61941   5.834   6.030   0.761 -0.0110 -0.4513  0.0077
20167SOL    HW161942   5.770   5.959   0.766 -0.7607  0.1753 -0.3477
20167SOL    HW261943   5.819   6.070   0.675 -0.6469  1.0573  0.7745
20168SOL     OW61944   0.023   3.894   4.565  0.2478 -0.3479 -0.3371
20168SOL    HW161945   0.065   3.843   4.495  0.2951 -0.3830 -0.2828
20168SOL    HW261946   0.047   3.984   4.546  0.3858 -0.3723 -0.2803
20169SOL     OW61947   0.955   4.665   0.324 -0.0479 -0.0957  0.1394
20169SOL    HW161948   0.902   4.648   0.402  1.4997  0.6953  1.4067
20169SOL    HW261949   1.042   4.631   0.345  0.8576  1.6872 -0.5349
20170SOL     OW61950   6.629   4.998  11.098 -0.6388  0.0696 -0.2381
20170SOL    HW161951   6.547   4.990  11.147 -0.9408  2.3840 -0.2080
20170SOL    HW261952   6.669   5.079  11.132  1.1721 -0.4666 -0.9539
20171SOL     OW61953   5.638   7.461   2.853  0.3199 -0.1834 -0.8201
20171SOL    HW161954   5.615   7.368   2.849 -0.5238 -0.0235  0.1434
20171SOL    HW261955   5.583   7.497   2.922 -0.4145  1.3499 -2.1446
20172SOL     OW61956   4.939   7.693   2.740 -0.5511 -0.1368 -0.2798
20172SOL    HW161957   4.891   7.774   2.723  2.1960  1.2865 -2.1376
20172SOL    HW261958   4.936   7.646   2.657 -1.5658 -1.6595  0.5941
20173SOL     OW61959   1.140   2.711   8.761 -0.0235 -0.4405 -0.1433
20173SOL    HW161960   1.110   2.689   8.673  0.1018  2.4977 -1.0229
20173SOL    HW261961   1.180   2.798   8.752  1.4103 -0.7222  2.5292
20174SOL     OW61962   3.229   7.691  11.005 -0.6386 -0.6211 -0.2311
20174SOL    HW161963   3.305   7.687  11.062  1.8813  3.0526 -2.8603
20174SOL    HW261964   3.261   7.660  10.920 -2.1389  0.6402 -1.3211
20175SOL     OW61965   1.426   6.997   8.538 -0.4838  0.1677 -0.0025
20175SOL    HW161966   1.399   7.078   8.495  0.2704  0.2039 -0.4314
20175SOL    HW261967   1.380   6.927   8.490  1.2607  0.1013 -1.7175
20176SOL     OW61968   1.074   1.616  12.042 -0.2541  0.1717 -0.6105
20176SOL    HW161969   1.022   1.648  12.116 -1.5591  0.4616 -1.6127
20176SOL    HW261970   1.028   1.649  11.965  1.4793  0.4757 -1.5457
20177SOL     OW61971   7.142   5.956   7.689  0.1810  0.2267  0.1207
20177SOL    HW161972   7.185   6.030   7.730  0.5006  0.7694 -1.1614
20177SOL    HW261973   7.092   5.994   7.617  1.5154 -0.9291 -1.4916
20178SOL     OW61974   5.118   5.506   7.794 -0.2833 -0.0823 -0.1601
20178SOL    HW161975   5.104   5.448   7.868 -0.0775  1.7613  1.4062
20178SOL    HW261976   5.212   5.498   7.774 -0.2021 -0.1021  0.2228
20179SOL     OW61977   3.645   3.594   7.570 -0.2259 -0.3173  0.1784
20179SOL    HW161978   3.579   3.602   7.638 -1.4139 -0.1690 -0.9581
20179SOL    HW261979   3.622   3.662   7.506  0.8985 -0.4070 -0.3525
20180SOL     OW61980   4.767   6.497  11.919  0.0203  0.4678 -0.0715
20180SOL    HW161981   4.691   6.525  11.970  0.1672  1.1941 -0.2338
20180SOL    HW261982   4.840   6.545  11.957  0.1733  0.8191 -0.7959
20181SOL     OW61983   3.367   6.234   6.209  0.1845  0.3458 -0.0525
20181SOL    HW161984   3.428   6.222   6.136  0.3863 -1.6133  0.3800
20181SOL    HW261985   3.305   6.160   6.201 -0.2878  0.5716  1.2709
20182SOL     OW61986   6.671   6.192   7.824  0.5253  0.5426  0.6447
20182SOL    HW161987   6.673   6.153   7.912  0.6014 -0.0854  0.3739
20182SOL    HW261988   6.694   6.119   7.766 -0.3338  0.7387  0.0326
20183SOL     OW61989   1.011   4.048   7.150 -0.0840 -0.3231 -0.0022
20183SOL    HW161990   1.034   4.013   7.064 -0.9493 -3.8589  1.0446
20183SOL    HW261991   1.033   3.978   7.211 -0.4628  1.6694  2.5968
20184SOL     OW61992   1.842   3.961   8.222  0.1628  0.1717  0.0356
20184SOL    HW161993   1.921   4.006   8.252  0.3790 -0.1909  0.0069
20184SOL    HW261994   1.771   4.002   8.273  0.5906 -0.8861  1.5492
20185SOL     OW61995   5.032   5.257   5.067  0.0483  0.0417 -0.3161
20185SOL    HW161996   5.037   5.171   5.025  0.5996  0.2077 -0.5896
20185SOL    HW261997   5.109   5.261   5.123 -0.4087  0.0319  0.3343
20186SOL     OW61998   6.461   0.181  10.991 -0.1418 -0.1456 -0.0192
20186SOL    HW161999   6.460   0.242  11.065  0.5299 -1.1376  0.8270
20186SOL    HW262000   6.552   0.181  10.961  0.3915 -2.3551  1.4006
20187SOL     OW62001   0.960   7.057   4.153  0.5319  0.4097 -0.2366
20187SOL    HW162002   0.955   7.067   4.248  1.0212 -1.7977  0.0648
20187SOL    HW262003   0.877   7.016   4.129  1.4904 -1.5802 -0.3364
20188SOL     OW62004   3.685   6.699   2.420 -0.1660 -0.3285 -0.4365
20188SOL    HW162005   3.678   6.721   2.513 -0.6835 -2.0380 -0.0404
20188SOL    HW262006   3.753   6.632   2.416 -1.9546 -2.1960 -0.9082
20189SOL     OW62007   2.965   4.117   5.347 -0.2583  0.2759 -0.1965
20189SOL    HW162008   2.937   4.042   5.295 -1.3275 -0.0452  0.8032
20189SOL    HW262009   3.032   4.082   5.405 -0.8538  0.0365  0.3650
20190SOL     OW62010   0.977   6.036   9.895  0.4906 -0.1172  0.2166
20190SOL    HW162011   0.970   6.109   9.956 -0.1812  0.4653 -0.5430
20190SOL    HW262012   1.058   6.052   9.846 -0.7051  1.3107 -1.4250
20191SOL     OW62013   0.420   2.326  10.898  0.0479 -0.1083 -0.1277
20191SOL    HW162014   0.460   2.257  10.950  2.7839  1.6586  0.3619
20191SOL    HW262015   0.379   2.281  10.824  1.4933 -2.2674  0.2996
20192SOL     OW62016   7.670   2.380   9.650  0.2767  0.2954  0.6925
20192SOL    HW162017   7.652   2.399   9.557 -1.1037  1.4321  1.1542
20192SOL    HW262018   7.718   2.457   9.681  0.5095  0.0328  0.9788
20193SOL     OW62019   5.452   7.258   9.934 -0.8239  0.1757  0.3449
20193SOL    HW162020   5.535   7.231   9.973 -0.6618  0.3090  0.0934
20193SOL    HW262021   5.474   7.282   9.844 -1.1058  0.3644  0.3243
20194SOL     OW62022   5.089   0.835  10.737 -0.1466  0.0976  0.1608
20194SOL    HW162023   5.043   0.919  10.737  1.1505  0.8491 -0.7748
20194SOL    HW262024   5.169   0.852  10.788 -0.3295 -0.8490  0.7838
20195SOL     OW62025   2.994   2.497   8.788 -0.1724  0.0776 -0.6169
20195SOL    HW162026   3.020   2.405   8.792 -0.9200 -0.1901 -1.4496
20195SOL    HW262027   2.972   2.512   8.696 -0.8895  0.8502 -0.3387
20196SOL     OW62028   2.388   3.567   2.096  0.1086 -0.5090 -0.6811
20196SOL    HW162029   2.472   3.544   2.135  0.7166 -1.3640 -2.4020
20196SOL    HW262030   2.324   3.549   2.165  1.3595  1.1627  1.0440
20197SOL     OW62031   1.900   0.436   4.565 -0.1172 -0.2265  0.3091
20197SOL    HW162032   1.989   0.415   4.595 -0.0891  0.5709  0.8162
20197SOL    HW262033   1.903   0.425   4.471  0.9476  1.1878  0.1390
20198SOL     OW62034   3.929   0.149   9.094 -0.0904 -0.1611 -0.6004
20198SOL    HW162035   3.909   0.110   9.179  0.5149  0.1675 -0.2917
20198SOL    HW262036   3.956   0.239   9.115  0.8589 -0.3276 -1.0539
20199SOL     OW62037   0.228   2.740   0.447  0.7841  0.6734  0.3115
20199SOL    HW162038   0.309   2.752   0.495  0.6115 -0.5562  0.9396
20199SOL    HW262039   0.243   2.663   0.392 -0.3189 -0.2749  1.2865
20200SOL     OW62040   5.776   3.717   2.400  0.0755 -0.2847 -0.0272
20200SOL    HW162041   5.853   3.668   2.429  0.1024  1.0154  2.3935
20200SOL    HW262042   5.704   3.655   2.409  0.6157 -1.0489 -0.8374
20201SOL     OW62043   7.822   1.665   1.915 -0.2830  0.4579 -0.5182
20201SOL    HW162044   7.741   1.645   1.962  0.3909  0.1299  0.5509
20201SOL    HW262045   7.797   1.733   1.852 -0.9421  1.9549  1.2731
20202SOL     OW62046   3.741   5.539   6.026  0.0312  0.1463  0.0504
20202SOL    HW162047   3.768   5.509   6.113 -0.4828 -1.1632 -0.2051
20202SOL    HW262048   3.822   5.568   5.985  0.1485  1.6878  1.2765
20203SOL     OW62049   7.431   6.453   6.105 -0.3825  0.3133 -0.2294
20203SOL    HW162050   7.390   6.537   6.084  0.7731  0.7796 -0.7389
20203SOL    HW262051   7.524   6.474   6.114 -0.4669 -0.2083  3.3089
20204SOL     OW62052   5.971   6.467   6.853  0.0106  0.0837 -0.3853
20204SOL    HW162053   5.895   6.411   6.867 -0.4444  1.1609  2.1044
20204SOL    HW262054   6.042   6.422   6.900  0.2218  0.4129 -0.3866
20205SOL     OW62055   4.335   7.583   4.382 -0.0278  0.3734  0.0138
20205SOL    HW162056   4.332   7.646   4.309 -0.4275  0.7356  0.3410
20205SOL    HW262057   4.253   7.597   4.429  1.0147  1.4478  1.6107
20206SOL     OW62058   1.664   2.338   6.225  0.1291 -0.2686  0.2064
20206SOL    HW162059   1.569   2.329   6.233  0.3138 -0.9643  2.6342
20206SOL    HW262060   1.677   2.424   6.187 -1.4825  0.9461  2.2124
20207SOL     OW62061   7.244   7.604   9.524 -0.3095 -0.1238  0.0654
20207SOL    HW162062   7.298   7.606   9.603  0.2562 -0.6918 -0.2958
20207SOL    HW262063   7.237   7.696   9.497 -0.6235  0.0888  0.8418
20208SOL     OW62064   1.135   4.131   4.917  0.5543  0.4093 -0.3526
20208SOL    HW162065   1.185   4.084   4.984 -0.8659  0.7090  0.9709
20208SOL    HW262066   1.202   4.173   4.863  1.7734  1.6996  1.9971
20209SOL     OW62067   6.522   7.248  10.303  0.2075  0.5192  0.4160
20209SOL    HW162068   6.516   7.322  10.244 -0.6413  0.7369  0.7581
20209SOL    HW262069   6.447   7.258  10.362  1.4260  0.7277  2.0104
20210SOL     OW62070   5.047   5.165   6.095 -0.1022 -0.1229  0.5314
20210SOL    HW162071   5.033   5.080   6.135  2.0196  0.1852  2.1156
20210SOL    HW262072   4.973   5.219   6.125 -1.0065 -1.1463  0.1904
20211SOL     OW62073   0.477   6.043   1.193  0.1831 -0.5727  0.2777
20211SOL    HW162074   0.418   6.024   1.265  1.1771  0.0860  1.3144
20211SOL    HW262075   0.550   5.982   1.205 -0.5304 -1.8121 -1.3490
20212SOL     OW62076   2.112   3.149   5.218  0.0945  0.4310 -0.1358
20212SOL    HW162077   2.095   3.186   5.131  1.1860 -0.8284 -0.9131
20212SOL    HW262078   2.189   3.093   5.206 -0.4151 -0.6593  1.3997
20213SOL     OW62079   0.834   6.496   3.039  0.2453 -0.7749  0.0876
20213SOL    HW162080   0.779   6.544   2.976  1.6609 -2.0836 -2.2967
20213SOL    HW262081   0.892   6.563   3.075 -1.4226  0.2308  1.0107
20214SOL     OW62082   2.061   7.023   0.438 -0.4051  0.1199 -0.8116
20214SOL    HW162083   2.106   7.077   0.503  0.1850  0.6102 -1.6135
20214SOL    HW262084   1.974   7.008   0.476 -0.4661  1.3452 -0.4183
20215SOL     OW62085   4.285   5.432  10.826  0.6190  0.7354 -0.3278
20215SOL    HW162086   4.292   5.457  10.734 -0.4945 -0.5621 -0.7876
20215SOL    HW262087   4.350   5.363  10.837  0.4269  0.5615 -0.2729
20216SOL     OW62088   2.537   1.637   9.468  0.4941 -0.1366 -0.6118
20216SOL    HW162089   2.606   1.666   9.528 -2.3041  1.6404  2.0723
20216SOL    HW262090   2.515   1.716   9.418  0.7639 -0.8335 -1.8587
20217SOL     OW62091   2.520   5.289   7.936 -0.1294 -0.3632  0.1614
20217SOL    HW162092   2.495   5.334   8.017 -0.2473  0.6977 -0.4517
20217SOL    HW262093   2.554   5.358   7.880  1.9794 -1.4012  0.0840
20218SOL     OW62094   7.527   2.759   7.057  0.9773  0.3093 -0.3961
20218SOL    HW162095   7.543   2.853   7.063 -1.5492  0.9481 -1.9678
20218SOL    HW262096   7.614   2.720   7.048  2.2224  2.2812  1.8928
20219SOL     OW62097   5.089   4.844   7.254  0.0110  0.1671  0.1461
20219SOL    HW162098   5.168   4.824   7.205 -0.5854  0.7008 -1.0617
20219SOL    HW262099   5.022   4.786   7.216 -0.0146 -0.9192  1.7356
20220SOL     OW62100   1.334   4.709  12.021  0.0278 -0.0721  0.2036
20220SOL    HW162101   1.410   4.687  12.075  0.0108 -1.7320 -0.3951
20220SOL    HW262102   1.289   4.778  12.070  0.5142 -0.8579  1.8468
20221SOL     OW62103   7.903   7.564   9.550 -0.8315 -0.4108 -0.0761
20221SOL    HW162104   7.996   7.571   9.529 -1.1594 -0.2224 -1.5036
20221SOL    HW262105   7.896   7.482   9.599  0.4234  0.7070  2.1839
20222SOL     OW62106   2.013   1.546  10.383  0.1791 -0.1874  0.6116
20222SOL    HW162107   2.057   1.538  10.467 -1.0012  0.8124  1.3715
20222SOL    HW262108   2.083   1.558  10.319  1.0146  1.6564  1.8011
20223SOL     OW62109   5.388   6.255   4.044 -0.6282  0.1278 -0.0103
20223SOL    HW162110   5.329   6.310   3.993  0.0560  0.7651 -0.1271
20223SOL    HW262111   5.387   6.171   3.998 -0.2734  0.5964 -0.9127
20224SOL     OW62112   3.223   3.095   2.250 -0.2968 -0.6494  0.1561
20224SOL    HW162113   3.246   3.005   2.275 -0.1766 -0.6629 -0.0063
20224SOL    HW262114   3.196   3.088   2.158  3.4978  0.0977 -1.1669
20225SOL     OW62115   3.144   5.260  10.765 -0.3530 -0.2885  0.1416
20225SOL    HW162116   3.188   5.186  10.725  2.0847 -0.1544  2.3132
20225SOL    HW262117   3.148   5.242  10.859 -0.0740  2.3528  0.7180
20226SOL     OW62118   5.041   0.459   6.151  0.6014  0.0219 -0.5432
20226SOL    HW162119   5.030   0.551   6.128 -0.7718 -0.0871 -0.3805
20226SOL    HW262120   5.135   0.449   6.166  0.5924  1.7562  0.9858
20227SOL     OW62121   1.866   0.179   5.404 -0.3564 -0.6062  0.1265
20227SOL    HW162122   1.953   0.188   5.441  0.0607 -1.5458 -0.5764
20227SOL    HW262123   1.841   0.088   5.423 -2.1876  0.2474  2.3837
20228SOL     OW62124   3.091   5.087   8.564  0.0582  0.1130 -0.1750
20228SOL    HW162125   3.125   5.140   8.636  1.6934 -0.1081 -0.7485
20228SOL    HW262126   3.167   5.070   8.509 -0.4479 -2.6464 -0.1349
20229SOL     OW62127   1.235   7.520   5.620 -0.6596  0.6255 -0.0961
20229SOL    HW162128   1.298   7.551   5.555 -0.6075  1.3671  0.2985
20229SOL    HW262129   1.287   7.468   5.681 -0.9539 -1.3337 -1.4453
20230SOL     OW62130   7.186   0.914   0.665  0.4525 -0.0003 -0.0058
20230SOL    HW162131   7.106   0.888   0.618  1.7849  0.2356 -2.6141
20230SOL    HW262132   7.194   0.850   0.736  0.1461 -2.7642 -2.2473
20231SOL     OW62133   1.361   4.253   4.803 -0.0968 -0.5408 -0.1610
20231SOL    HW162134   1.340   4.341   4.772  0.3484 -0.3313  0.1194
20231SOL    HW262135   1.433   4.266   4.865  0.7850 -1.2166 -1.0067
20232SOL     OW62136   1.781   2.774   9.661  0.1097 -0.2775 -0.2653
20232SOL    HW162137   1.730   2.736   9.589  0.5207  0.0883 -0.7623
20232SOL    HW262138   1.746   2.863   9.669  0.8779  0.0903 -0.8345
20233SOL     OW62139   1.927   0.690   4.674  0.4671 -0.1524 -0.3618
20233SOL    HW162140   1.919   0.711   4.767  0.0496 -0.2139 -0.3820
20233SOL    HW262141   1.903   0.598   4.668 -2.1534  0.4790 -0.8812
20234SOL     OW62142   1.685   3.715   0.076  0.3109  0.3046  0.0671
20234SOL    HW162143   1.703   3.692  -0.015 -0.3369  0.0930 -0.0113
20234SOL    HW262144   1.596   3.748   0.076  0.4881  0.8084  0.5434
20235SOL     OW62145   1.862   1.969   7.317 -0.6276  0.2554  0.4690
20235SOL    HW162146   1.777   2.006   7.293  0.0524  0.2960 -2.2958
20235SOL    HW262147   1.854   1.876   7.297  0.4056  0.5226 -1.4039
20236SOL     OW62148   0.690   7.435  11.945  0.0093  0.5014  0.2255
20236SOL    HW162149   0.778   7.408  11.922 -0.2310 -0.2692  0.1795
20236SOL    HW262150   0.656   7.476  11.866  0.8759  2.2712  0.7306
20237SOL     OW62151   3.423   0.349   0.895  0.2917  0.5134  0.0926
20237SOL    HW162152   3.492   0.317   0.953  0.8776 -1.5831 -1.6025
20237SOL    HW262153   3.406   0.275   0.836 -3.8236  0.7023  0.7606
20238SOL     OW62154   6.869   2.246   4.065 -0.1307  0.2074 -0.6453
20238SOL    HW162155   6.926   2.266   3.991  1.0337 -1.2146 -0.1739
20238SOL    HW262156   6.808   2.180   4.032 -1.5245  1.6811 -1.1310
20239SOL     OW62157   6.664   7.653   2.957  0.1663  0.0177 -0.5395
20239SOL    HW162158   6.751   7.689   2.937  0.3508  0.8394  1.4470
20239SOL    HW262159   6.609   7.682   2.885  0.9326  2.0241 -0.3959
20240SOL     OW62160   6.928   4.796   1.273  0.3209  0.0332  0.5857
20240SOL    HW162161   6.921   4.889   1.252  3.5195  0.3594  0.4806
20240SOL    HW262162   6.965   4.756   1.195  3.1836 -0.4492  2.0379
20241SOL     OW62163   6.478   1.395  12.096  0.4079  0.3486 -0.0412
20241SOL    HW162164   6.492   1.456  12.024  2.6780  1.7151  1.4329
20241SOL    HW262165   6.405   1.433  12.146 -0.6789 -0.2147 -1.1489
20242SOL     OW62166   4.024   3.791   1.102  0.3341 -0.5607 -0.4377
20242SOL    HW162167   3.988   3.718   1.153  0.0129 -0.4933 -0.5666
20242SOL    HW262168   4.110   3.759   1.073  1.4662  0.1608  1.8658
20243SOL     OW62169   2.585   0.332  11.944 -0.7152  0.1952  0.1773
20243SOL    HW162170   2.495   0.331  11.976 -0.9391 -1.5868 -0.4098
20243SOL    HW262171   2.579   0.377  11.859 -0.1328  4.8322  2.3038
20244SOL     OW62172   1.859   2.772   4.384  0.0177 -0.0030 -0.6419
20244SOL    HW162173   1.936   2.715   4.380  0.2562  0.3009 -0.3706
20244SOL    HW262174   1.785   2.713   4.366  0.3952 -0.0923 -1.9825
20245SOL     OW62175   0.872   7.437   3.870  0.4825  0.3528  0.1101
20245SOL    HW162176   0.931   7.374   3.912  0.8909 -0.4299 -1.5225
20245SOL    HW262177   0.908   7.448   3.782 -0.7036  1.3743 -0.2777
20246SOL     OW62178   7.305   7.109   0.031  0.1094  0.6535 -0.3844
20246SOL    HW162179   7.342   7.192   0.002  0.5486  0.8667  0.7555
20246SOL    HW262180   7.329   7.102   0.123 -1.0144 -0.1315 -0.1253
20247SOL     OW62181   1.239   5.854   8.789  0.2199 -0.3271  0.4805
20247SOL    HW162182   1.207   5.795   8.857  2.6148  0.7468  2.7018
20247SOL    HW262183   1.288   5.921   8.836  0.9776  1.1939 -2.2463
20248SOL     OW62184   3.352   1.450  10.722 -0.0703 -0.1738 -0.1118
20248SOL    HW162185   3.377   1.470  10.812 -0.9037  0.8223 -0.0906
20248SOL    HW262186   3.395   1.517  10.670  1.7904 -1.7119 -0.6762
20249SOL     OW62187   2.111   2.104   2.350  0.2183  0.4704 -0.5960
20249SOL    HW162188   2.075   2.015   2.346  1.7420 -0.3594  1.8615
20249SOL    HW262189   2.199   2.095   2.313  0.7403  0.6946  0.5428
20250SOL     OW62190   4.484   4.693   0.751  0.4212  0.0397 -0.2082
20250SOL    HW162191   4.481   4.602   0.778 -1.1490  0.0864 -0.1106
20250SOL    HW262192   4.435   4.695   0.668 -0.5711  0.9474  0.3684
20251SOL     OW62193   4.308   1.773   6.380 -0.0258 -0.0493 -0.0520
20251SOL    HW162194   4.347   1.815   6.303  0.8245 -1.0931 -0.2134
20251SOL    HW262195   4.345   1.820   6.454 -0.0212  0.2728 -0.2548
20252SOL     OW62196   1.121   7.148  12.203 -0.2092 -0.0755  0.0462
20252SOL    HW162197   1.073   7.130  12.284  0.6031 -0.5445  0.4435
20252SOL    HW262198   1.165   7.065  12.183 -0.0779  0.1581 -0.6525
20253SOL     OW62199   4.158   1.827   2.596  0.0058 -0.8059  0.2628
20253SOL    HW162200   4.169   1.883   2.673 -0.0601 -0.5445  0.0840
20253SOL    HW262201   4.153   1.888   2.522 -0.9582 -0.9865  0.1601
20254SOL     OW62202   6.565   5.016   0.558 -0.1980 -0.2393  0.6013
20254SOL    HW162203   6.548   5.106   0.531  0.1761 -0.2706  0.2512
20254SOL    HW262204   6.648   5.019   0.605  0.4017 -0.5762 -0.4086
20255SOL     OW62205   1.210   6.120   7.461  0.1621  0.3049 -0.1298
20255SOL    HW162206   1.164   6.204   7.451  1.4371  1.4890  2.8733
20255SOL    HW262207   1.283   6.125   7.401 -0.2447  0.9868 -0.5784
20256SOL     OW62208   0.685   6.371   9.198  0.2689  0.5502  0.4626
20256SOL    HW162209   0.670   6.398   9.289  1.3785 -0.0446  0.8380
20256SOL    HW262210   0.696   6.276   9.203 -0.6367  0.3845 -0.4371
20257SOL     OW62211   5.633   2.509   3.409  0.0241  0.3955  0.3050
20257SOL    HW162212   5.636   2.580   3.473  0.5292  0.6004  0.0565
20257SOL    HW262213   5.554   2.526   3.358 -0.1655  0.4512  0.6129
20258SOL     OW62214   3.286   4.152   9.679  0.5703  0.3443 -0.0619
20258SOL    HW162215   3.353   4.197   9.627  1.9416 -1.8416 -0.3391
20258SOL    HW262216   3.279   4.065   9.638 -2.1544  0.3213  0.2450
20259SOL     OW62217   3.978   0.268   2.652  0.3357  0.1470 -0.2222
20259SOL    HW162218   4.064   0.303   2.676  0.7290 -2.2844  2.6354
20259SOL    HW262219   3.997   0.192   2.597 -0.1426  0.6829 -1.1573
20260SOL     OW62220   4.593   2.771   4.274 -0.2081 -0.3964 -0.0858
20260SOL    HW162221   4.510   2.724   4.265 -1.1050  1.2627 -1.0116
20260SOL    HW262222   4.627   2.777   4.185  0.3171 -0.0362  0.1343
20261SOL     OW62223   7.922   7.859  11.153  0.1371  0.5963 -0.1314
20261SOL    HW162224   8.003   7.871  11.104 -0.0081  0.6597 -0.3566
20261SOL    HW262225   7.863   7.814  11.093  0.8752 -1.9093  0.8813
20262SOL     OW62226   1.111   7.234  10.222  0.1223  0.5708  0.9154
20262SOL    HW162227   1.052   7.184  10.278  1.2525 -0.4580  1.2100
20262SOL    HW262228   1.100   7.325  10.251 -1.1460  0.3759  1.0978
20263SOL     OW62229   0.044   4.842  10.069  0.2551 -0.7332  0.1601
20263SOL    HW162230   0.075   4.914  10.014  0.9716 -1.2127 -0.0951
20263SOL    HW262231  -0.044   4.823  10.036  0.9379 -1.4905 -1.3557
20264SOL     OW62232   7.035   3.328   6.866 -0.2660 -0.0137 -0.4220
20264SOL    HW162233   6.985   3.403   6.896 -1.1580 -0.8689  0.3230
20264SOL    HW262234   7.121   3.363   6.842 -0.7963  1.2797 -0.4672
20265SOL     OW62235   2.620   3.558  12.117  0.1310  0.5951 -0.2479
20265SOL    HW162236   2.543   3.600  12.156  0.4360  1.5899 -0.6855
20265SOL    HW262237   2.639   3.610  12.040  1.2609  0.3701 -0.1324
20266SOL     OW62238   0.551   3.924   0.340  0.1397 -0.3742 -0.5315
20266SOL    HW162239   0.571   3.831   0.344  0.4556 -0.3090 -0.5555
20266SOL    HW262240   0.549   3.944   0.246 -2.2180 -0.8342 -0.6532
20267SOL     OW62241   0.739   5.836   8.249  0.5392 -0.7368  0.0293
20267SOL    HW162242   0.691   5.874   8.176  1.9797  1.5215  0.1465
20267SOL    HW262243   0.715   5.743   8.249 -2.9300  0.0230 -0.5454
20268SOL     OW62244   0.940   4.870   0.560 -0.0099  0.1119  0.4406
20268SOL    HW162245   1.014   4.914   0.602  0.1117  0.0976  0.2410
20268SOL    HW262246   0.961   4.777   0.564  0.9655  0.1977 -1.4285
20269SOL     OW62247   3.719   3.371  10.427  0.1435  0.0160 -0.6627
20269SOL    HW162248   3.689   3.430  10.358 -0.2903 -1.0998 -1.4577
20269SOL    HW262249   3.639   3.347  10.474  0.5343  1.4488  0.8238
20270SOL     OW62250   7.154   7.659   9.198 -0.2843  0.1574 -0.6965
20270SOL    HW162251   7.093   7.597   9.238 -1.6015  1.6640 -0.3033
20270SOL    HW262252   7.241   7.625   9.221 -0.8985 -2.2703 -1.6320
20271SOL     OW62253   4.135   0.932   9.199  0.3957 -0.3588  0.3948
20271SOL    HW162254   4.214   0.877   9.201  0.2054 -0.6395  0.1629
20271SOL    HW262255   4.076   0.887   9.139  0.9676  1.1122 -1.3492
20272SOL     OW62256   5.560   6.564   7.563  0.2528  0.3213 -0.0366
20272SOL    HW162257   5.562   6.514   7.644  1.3176 -0.3294 -0.4291
20272SOL    HW262258   5.650   6.557   7.529 -0.1289  0.7258 -1.1718
20273SOL     OW62259   1.672   1.704   3.171 -0.2538  0.7900 -0.3977
20273SOL    HW162260   1.590   1.675   3.213  0.1304 -1.4417 -1.0223
20273SOL    HW262261   1.726   1.736   3.243 -0.0222 -1.9408  0.7882
20274SOL     OW62262   2.326   4.150  11.086 -0.1001  0.0164  0.0774
20274SOL    HW162263   2.332   4.117  11.176  0.4379  3.0819  1.3109
20274SOL    HW262264   2.416   4.176  11.065 -0.1106 -1.2149 -1.6342
20275SOL     OW62265   3.083   7.782   2.477 -0.1365 -0.2284  0.1850
20275SOL    HW162266   3.090   7.866   2.433  1.1936 -0.0191  0.7260
20275SOL    HW262267   3.122   7.797   2.564 -2.4039 -0.6901  1.3617
20276SOL     OW62268   7.891   0.380   1.299 -0.3318  0.2267 -0.5511
20276SOL    HW162269   7.894   0.451   1.235  1.0945 -0.0763 -0.8539
20276SOL    HW262270   7.905   0.300   1.249  1.1719  0.0153  0.1475
20277SOL     OW62271   4.573   1.172  12.183 -0.9750  0.4722  0.3865
20277SOL    HW162272   4.547   1.093  12.135 -1.0615  0.9382 -0.3460
20277SOL    HW262273   4.668   1.175  12.175 -0.9504  0.3284  0.6044
20278SOL     OW62274   7.176   2.232   2.244 -0.2700 -0.0663 -0.4328
20278SOL    HW162275   7.212   2.186   2.319  1.1811  0.1795 -0.9505
20278SOL    HW262276   7.115   2.169   2.204 -1.8030  0.1390  1.4493
20279SOL     OW62277   0.425   7.080   0.479 -0.5345 -0.3276 -0.1968
20279SOL    HW162278   0.338   7.072   0.440 -0.0716  0.6760 -1.5132
20279SOL    HW262279   0.483   7.098   0.405  0.6653 -0.1488  0.7553
20280SOL     OW62280   1.009   6.704   4.828 -0.0847  0.1085 -0.1698
20280SOL    HW162281   1.015   6.715   4.923 -0.1328 -4.6901  0.6075
20280SOL    HW262282   1.097   6.678   4.800 -0.5992 -0.8221 -0.9958
20281SOL     OW62283   1.910   7.307  11.523 -0.0885 -0.1045 -0.1066
20281SOL    HW162284   1.956   7.225  11.505 -0.6873 -0.6168  0.6259
20281SOL    HW262285   1.965   7.375  11.483  1.8265 -0.5775  1.5375
20282SOL     OW62286   6.329   4.734   6.781 -0.0657  0.5740 -0.5171
20282SOL    HW162287   6.276   4.812   6.766 -0.3754  0.4066 -0.3132
20282SOL    HW262288   6.328   4.723   6.876 -1.6652 -0.7767 -0.6317
20283SOL     OW62289   6.654   4.600   8.143 -0.3431 -0.3037 -0.4133
20283SOL    HW162290   6.605   4.654   8.206  0.1967 -1.0328  0.6787
20283SOL    HW262291   6.745   4.630   8.151  0.1235 -1.8570  0.8326
20284SOL     OW62292   4.200   1.929   0.757 -0.0060  0.0217  0.5051
20284SOL    HW162293   4.290   1.901   0.738  0.4736  0.2994  2.1994
20284SOL    HW262294   4.169   1.968   0.675  0.8280 -1.5404 -0.6051
20285SOL     OW62295   3.665   7.358   0.457  0.1823 -0.1002 -0.1335
20285SOL    HW162296   3.724   7.292   0.495 -0.1063  0.5606  1.5628
20285SOL    HW262297   3.711   7.388   0.378  2.1582  0.3922  1.1221
20286SOL     OW62298   4.587   5.038   7.642 -0.1791  0.0892  0.1815
20286SOL    HW162299   4.573   4.959   7.590 -0.9617 -0.2972  0.9489
20286SOL    HW262300   4.640   5.009   7.716 -0.8652  0.1733  0.7147
20287SOL     OW62301   0.278   7.489   3.439  0.2764  0.0250  0.0241
20287SOL    HW162302   0.221   7.552   3.483  1.8159  1.5276 -0.0307
20287SOL    HW262303   0.317   7.438   3.510 -1.1460 -1.0620  0.0572
20288SOL     OW62304   3.151   7.157   5.988  0.1067  0.3016  0.2669
20288SOL    HW162305   3.181   7.136   5.900  1.1804  0.5822  0.5453
20288SOL    HW262306   3.112   7.076   6.020  0.9956 -0.2303  0.0470
20289SOL     OW62307   1.166   4.677   7.323 -0.3263  0.3151 -0.0717
20289SOL    HW162308   1.245   4.702   7.276 -0.2328 -0.8860 -0.5999
20289SOL    HW262309   1.178   4.712   7.411  0.8031  0.1541 -0.1492
20290SOL     OW62310   2.686   6.186   2.537  0.6203  0.2932 -0.0579
20290SOL    HW162311   2.628   6.241   2.590  1.5724  0.3174  1.0049
20290SOL    HW262312   2.641   6.177   2.453 -0.5851  0.8695  0.5032
20291SOL     OW62313   7.222   5.336   5.318  0.0660 -0.1647  0.0749
20291SOL    HW162314   7.234   5.249   5.356 -2.9734 -0.9151 -0.4199
20291SOL    HW262315   7.153   5.376   5.371  1.0350  1.7661 -0.0416
20292SOL     OW62316   7.562   3.095  10.724  0.5229  0.5240 -0.3239
20292SOL    HW162317   7.611   3.054  10.796  1.1974  2.1127  0.1668
20292SOL    HW262318   7.542   3.023  10.665  3.1087 -0.2731 -0.3376
20293SOL     OW62319   4.885   6.146   0.585 -0.0168 -0.1271 -0.2944
20293SOL    HW162320   4.795   6.127   0.611 -0.1513  0.2749 -0.4584
20293SOL    HW262321   4.879   6.165   0.491  0.1955  0.1831 -0.2471
20294SOL     OW62322   0.932   2.474   0.191 -0.1784 -0.4417 -0.1136
20294SOL    HW162323   0.966   2.491   0.102  0.2054 -1.2434 -0.1260
20294SOL    HW262324   1.011   2.467   0.245 -0.4323  1.2098  0.5281
20295SOL     OW62325   1.146   1.544   0.645 -0.5943 -0.2307  0.1263
20295SOL    HW162326   1.219   1.569   0.588 -0.6506 -0.7081 -0.1609
20295SOL    HW262327   1.124   1.455   0.617 -0.6688 -0.4389  0.8470
20296SOL     OW62328   4.504   4.306  10.872  0.1542 -0.1379  0.2039
20296SOL    HW162329   4.471   4.236  10.929 -1.8529  0.0354 -0.6731
20296SOL    HW262330   4.587   4.332  10.912  1.2952 -3.3968  0.2414
20297SOL     OW62331   6.699   5.124   3.195  0.3146  0.1341  0.0351
20297SOL    HW162332   6.717   5.151   3.105  0.3315 -0.5696 -0.1764
20297SOL    HW262333   6.704   5.029   3.193  0.4360  0.1171  0.8082
20298SOL     OW62334   6.014   3.786   6.922  0.9912 -0.4499 -0.0824
20298SOL    HW162335   5.926   3.751   6.911  1.1238 -0.9644  0.4253
20298SOL    HW262336   6.016   3.818   7.013  0.4845  2.0354 -0.8749
20299SOL     OW62337   5.097   1.476  12.208  0.2700 -0.0465 -0.1319
20299SOL    HW162338   5.111   1.382  12.210 -1.1664 -0.2877 -0.2914
20299SOL    HW262339   5.085   1.500  12.300  1.5492  0.1575  0.0032
20300SOL     OW62340   7.913   0.186   6.523  0.4375 -0.2586  0.0974
20300SOL    HW162341   7.940   0.095   6.537 -0.3537 -0.5455 -0.1583
20300SOL    HW262342   7.930   0.230   6.606  1.0751 -0.5767  0.1361
20301SOL     OW62343   0.134   6.527  12.247 -0.3308 -0.6001  0.0279
20301SOL    HW162344   0.153   6.562  12.334 -1.5490  1.9947 -0.6688
20301SOL    HW262345   0.212   6.477  12.224  1.0860  0.7676  1.5849
20302SOL     OW62346   1.370   3.705  12.096 -0.1915  0.3054 -0.1689
20302SOL    HW162347   1.419   3.694  12.177 -1.0588  1.6004  0.5574
20302SOL    HW262348   1.336   3.617  12.077 -0.6777  0.1405  1.3300
20303SOL     OW62349   2.142   6.538   5.013 -0.3529  0.0629 -0.5912
20303SOL    HW162350   2.052   6.508   5.028  0.0862 -0.1973  1.9753
20303SOL    HW262351   2.132   6.630   4.989 -1.2922  0.5860  1.5353
20304SOL     OW62352   5.606   0.602   4.385 -0.1450 -0.3617 -0.2602
20304SOL    HW162353   5.669   0.653   4.434  0.1026 -0.3503 -0.5848
20304SOL    HW262354   5.643   0.596   4.297  0.0798 -1.5337 -0.0990
20305SOL     OW62355   0.481   4.401   9.663  0.0319  0.0160 -0.0944
20305SOL    HW162356   0.518   4.407   9.575  1.7162 -0.1579  0.5557
20305SOL    HW262357   0.387   4.395   9.650  0.2926 -0.6188 -1.9064
20306SOL     OW62358   0.465   0.737   6.238  0.2177 -0.1434 -0.2384
20306SOL    HW162359   0.443   0.806   6.301  0.4180 -0.1302 -0.1820
20306SOL    HW262360   0.526   0.778   6.177  1.2460 -0.5876  0.4711
20307SOL     OW62361   7.618   5.481   3.111 -0.1721  0.1731  0.0723
20307SOL    HW162362   7.601   5.456   3.020 -1.9436  2.0798 -0.1883
20307SOL    HW262363   7.601   5.402   3.162 -3.1574  0.0757 -0.9198
20308SOL     OW62364   7.051   3.846   7.155  0.2816  0.0569 -0.0231
20308SOL    HW162365   7.129   3.826   7.103  0.2821  0.2860 -0.1145
20308SOL    HW262366   7.034   3.939   7.138 -0.3606 -0.1342 -0.4725
20309SOL     OW62367   2.228   1.789   2.676  0.2637  0.1582  0.4923
20309SOL    HW162368   2.271   1.733   2.741  0.6573  0.6309  0.6450
20309SOL    HW262369   2.273   1.873   2.683 -1.2629  0.9451  1.2563
20310SOL     OW62370   5.090   6.220  11.427  0.4860 -0.0260 -0.1488
20310SOL    HW162371   5.108   6.301  11.378  1.9979 -1.4372 -2.0662
20310SOL    HW262372   5.096   6.246  11.519 -0.1658  2.2500 -0.6845
20311SOL     OW62373   5.711   5.289   9.003  0.1525  0.3120  0.1769
20311SOL    HW162374   5.616   5.281   9.016 -0.1932  1.9968 -0.8635
20311SOL    HW262375   5.735   5.367   9.053  0.6726  0.8208 -0.8342
20312SOL     OW62376   6.766   2.959   4.561  0.3532 -0.4556  0.2163
20312SOL    HW162377   6.710   3.033   4.538  0.1781 -0.7988 -0.4824
20312SOL    HW262378   6.855   2.990   4.544  0.1869 -1.0951 -2.2083
20313SOL     OW62379   4.720   3.829   8.904 -0.0412 -0.2885 -0.6568
20313SOL    HW162380   4.782   3.902   8.906  0.3552 -0.6219 -0.3262
20313SOL    HW262381   4.763   3.763   8.849  0.0682 -0.6582 -0.1430
20314SOL     OW62382   6.881   0.197   7.278 -0.1279  0.5337  0.3077
20314SOL    HW162383   6.851   0.116   7.238 -0.2460 -0.0138  1.4550
20314SOL    HW262384   6.857   0.188   7.371  1.1634  1.2421  0.7352
20315SOL     OW62385   4.549   2.387  10.656 -0.2108 -0.2505 -0.3859
20315SOL    HW162386   4.632   2.368  10.699 -1.1783  0.3057  1.8801
20315SOL    HW262387   4.492   2.418  10.727 -2.5756 -1.2993 -1.7207
20316SOL     OW62388   4.126   2.388   8.451  0.2246 -0.4321 -0.7658
20316SOL    HW162389   4.209   2.406   8.495  0.2427 -1.6400 -0.2693
20316SOL    HW262390   4.061   2.436   8.503  0.5593  0.3204 -1.0159
20317SOL     OW62391   6.711   0.228   2.649 -0.2805  0.2002 -0.5912
20317SOL    HW162392   6.687   0.223   2.556  3.0066  0.7683 -1.5933
20317SOL    HW262393   6.658   0.160   2.691 -0.6220 -1.2721 -3.1815
20318SOL     OW62394   6.309   4.062   6.137  0.5643  0.2416  0.3223
20318SOL    HW162395   6.247   4.029   6.202  0.7994  2.1864  1.6064
20318SOL    HW262396   6.271   4.145   6.108  1.5056  0.4165 -0.4724
20319SOL     OW62397   1.872   3.718   9.205 -0.2162  0.0285  0.6784
20319SOL    HW162398   1.871   3.789   9.140  0.5242 -1.0666 -0.5884
20319SOL    HW262399   1.846   3.760   9.287  0.1702  1.7512 -0.0369
20320SOL     OW62400   7.598   6.097   0.264 -0.3018  0.4871  0.2038
20320SOL    HW162401   7.518   6.059   0.300  1.0836 -1.3459  1.5682
20320SOL    HW262402   7.618   6.044   0.187  0.4894 -0.2235  0.8745
20321SOL     OW62403   1.317   4.388   8.018  0.0742  0.3838  0.3047
20321SOL    HW162404   1.262   4.422   7.947 -0.7980 -0.3512  0.6050
20321SOL    HW262405   1.370   4.462   8.045 -1.0449  1.2259  0.2517
20322SOL     OW62406   1.870   1.535   4.775 -0.8823 -0.1563  0.0638
20322SOL    HW162407   1.793   1.481   4.788 -1.4899  0.1518 -1.9497
20322SOL    HW262408   1.938   1.494   4.829 -2.5809  0.0204  2.5161
20323SOL     OW62409   0.496   3.652   7.990 -0.0420 -0.0845 -0.0480
20323SOL    HW162410   0.583   3.683   7.964 -0.6512  1.2230 -0.5882
20323SOL    HW262411   0.451   3.634   7.907 -0.7281  0.5173  0.1787
20324SOL     OW62412   4.044   6.542   6.511 -0.2625 -0.8002  0.3182
20324SOL    HW162413   3.982   6.484   6.556 -2.2804  0.2635 -0.9244
20324SOL    HW262414   4.106   6.483   6.469  0.6814 -1.8724  2.9697
20325SOL     OW62415   0.997   2.266   5.477 -0.2449 -0.5284  0.3281
20325SOL    HW162416   1.074   2.315   5.448  0.8458 -1.9770  0.6439
20325SOL    HW262417   0.974   2.212   5.401 -0.8805 -0.2093  0.2867
20326SOL     OW62418   3.420   2.437   3.055  0.1905  0.3442 -0.0088
20326SOL    HW162419   3.353   2.393   3.107  1.1063 -0.4293  0.5535
20326SOL    HW262420   3.386   2.526   3.042 -0.6796  0.1343  0.7332
20327SOL     OW62421   3.744   3.462   1.211  0.1599 -0.5379  0.6155
20327SOL    HW162422   3.828   3.417   1.215 -0.6580 -2.1726  0.3229
20327SOL    HW262423   3.713   3.465   1.302  1.1800  1.4560  0.9556
20328SOL     OW62424   5.960   3.826   5.386 -0.5215  0.3244  0.0776
20328SOL    HW162425   5.969   3.792   5.475 -0.7997 -0.8796 -0.3347
20328SOL    HW262426   6.047   3.861   5.365 -0.5587  0.9915  0.9444
20329SOL     OW62427   5.371   6.283   4.972  0.5653 -0.3774  0.5437
20329SOL    HW162428   5.424   6.258   5.048  0.9313 -1.2133  0.0276
20329SOL    HW262429   5.354   6.201   4.926 -3.2330 -0.5562  1.9105
20330SOL     OW62430   7.314   0.405   9.379  0.0790 -0.3765 -0.0340
20330SOL    HW162431   7.406   0.383   9.369 -0.0304 -1.7398  1.5293
20330SOL    HW262432   7.270   0.357   9.308  0.4998 -0.1243 -0.4722
20331SOL     OW62433   6.215   3.453   2.210  0.6365  0.1690  0.4089
20331SOL    HW162434   6.207   3.525   2.273  2.1076 -0.3424  1.2329
20331SOL    HW262435   6.286   3.479   2.152  1.9433 -1.0614  1.3917
20332SOL     OW62436   2.498   0.520   1.130 -0.2740 -0.7174 -0.0323
20332SOL    HW162437   2.518   0.560   1.045 -0.1347  0.3983  0.5094
20332SOL    HW262438   2.464   0.433   1.108 -0.9185 -0.1748 -1.2623
20333SOL     OW62439   5.167   6.008   8.071 -0.2490 -0.3463  0.7444
20333SOL    HW162440   5.252   6.020   8.114 -0.5166 -2.2087  1.9688
20333SOL    HW262441   5.180   6.038   7.981  2.0323 -1.5090  0.6083
20334SOL     OW62442   6.908   2.343   6.069  0.1127  0.2636  0.3705
20334SOL    HW162443   6.853   2.269   6.041 -0.6765  1.3026 -0.9543
20334SOL    HW262444   6.992   2.328   6.026 -0.2956  0.5307 -0.5341
20335SOL     OW62445   7.387   3.418   0.357 -0.2508 -0.2350  0.0820
20335SOL    HW162446   7.409   3.357   0.286 -0.7099 -2.1593  1.5005
20335SOL    HW262447   7.335   3.365   0.418 -0.8715  1.6789  1.2881
20336SOL     OW62448   4.335   6.995   5.984  0.0724  0.2414 -0.3493
20336SOL    HW162449   4.339   7.053   6.060 -1.4989  1.4220 -1.1107
20336SOL    HW262450   4.424   6.998   5.947  0.9872 -0.6826  1.6137
20337SOL     OW62451   6.748   4.547   4.290 -0.2683 -0.1203 -0.2463
20337SOL    HW162452   6.835   4.587   4.297  0.3296 -1.6489  3.7456
20337SOL    HW262453   6.729   4.548   4.196  4.0811  0.1748 -1.3485
20338SOL     OW62454   1.770   2.433   8.231  0.2907  0.1407 -0.2780
20338SOL    HW162455   1.682   2.394   8.234 -0.6202  2.0995  0.6820
20338SOL    HW262456   1.829   2.362   8.255 -0.6936 -1.9172 -3.3885
20339SOL     OW62457   7.041   3.373   2.565  0.0108 -0.7823 -0.1674
20339SOL    HW162458   7.091   3.400   2.488  0.6581  0.5122  0.6674
20339SOL    HW262459   6.994   3.453   2.592 -1.7746 -1.7123 -0.3640
20340SOL     OW62460   2.519   3.825  12.198  0.0516  0.4896 -0.3195
20340SOL    HW162461   2.534   3.860  12.111  1.5166  1.6165  0.3503
20340SOL    HW262462   2.537   3.898  12.257  2.1605 -1.0552  1.0793
20341SOL     OW62463   6.338   6.619   6.094 -0.7278  0.2247 -0.0210
20341SOL    HW162464   6.382   6.537   6.116 -0.0951  0.0512 -1.7319
20341SOL    HW262465   6.380   6.684   6.149 -0.4724 -0.4287  0.5741
20342SOL     OW62466   5.276   4.618   1.549  0.6034 -0.2318 -0.6078
20342SOL    HW162467   5.253   4.692   1.606 -0.8685 -1.5264  0.5687
20342SOL    HW262468   5.192   4.579   1.526  1.1968 -0.0728 -3.3212
20343SOL     OW62469   0.942   1.898   3.935  0.9365  0.0464  0.3007
20343SOL    HW162470   0.976   1.883   4.023 -0.9037 -1.7999  0.7541
20343SOL    HW262471   0.975   1.825   3.884  1.0552  0.5074 -0.2947
20344SOL     OW62472   4.031   4.670  11.653  0.3277  0.0875 -0.2526
20344SOL    HW162473   3.942   4.686  11.687  0.8648  2.3081  0.2870
20344SOL    HW262474   4.060   4.756  11.623  2.7956 -0.3042  0.8164
20345SOL     OW62475   1.463   7.658   9.402  0.1889  0.4817  0.1946
20345SOL    HW162476   1.429   7.569   9.406  2.4771 -0.6869 -2.6013
20345SOL    HW262477   1.542   7.656   9.456  0.1011  0.9138  0.3445
20346SOL     OW62478   5.300   6.971   3.023 -0.1385 -0.6071 -0.0620
20346SOL    HW162479   5.310   6.973   2.928  1.0243  0.9993  0.0520
20346SOL    HW262480   5.207   6.954   3.037 -0.2405 -1.3123 -1.4729
20347SOL     OW62481   0.265   6.821  11.250 -0.4432 -0.3695 -0.1401
20347SOL    HW162482   0.217   6.742  11.274 -0.8639 -0.4290 -1.1127
20347SOL    HW262483   0.202   6.872  11.198 -0.6760  1.3166  1.6939
20348SOL     OW62484   7.058   4.965   5.372  0.0945 -0.4740  0.5848
20348SOL    HW162485   7.105   4.899   5.423  0.3705 -0.2633  0.6045
20348SOL    HW262486   7.032   4.919   5.292  0.6322 -0.5053  0.4208
20349SOL     OW62487   1.317   4.500   4.143  0.0470 -0.0243 -0.0166
20349SOL    HW162488   1.262   4.547   4.080 -2.1694 -2.3844 -0.0113
20349SOL    HW262489   1.282   4.527   4.228 -1.6294 -1.9505 -0.0223
20350SOL     OW62490   0.932   5.980   0.307 -0.6755 -0.3010  0.2368
20350SOL    HW162491   0.840   5.969   0.329 -0.9552  0.1289 -0.6817
20350SOL    HW262492   0.958   6.060   0.352 -0.1445 -1.5438  2.2784
20351SOL     OW62493   5.338   5.770   5.916  0.1207  0.0226  0.1985
20351SOL    HW162494   5.398   5.750   5.845 -1.0373  1.4611 -1.2671
20351SOL    HW262495   5.353   5.862   5.936  0.8899 -0.5097  2.3360
20352SOL     OW62496   1.323   7.877   0.470  0.1418  0.4847 -0.0588
20352SOL    HW162497   1.372   7.922   0.401  0.5182  0.5638  0.2570
20352SOL    HW262498   1.293   7.796   0.429  1.0841  0.1357 -0.0652
20353SOL     OW62499   1.607   5.331   2.421 -0.0727  0.1373  0.0886
20353SOL    HW162500   1.547   5.326   2.495  0.1225  0.7648  0.2933
20353SOL    HW262501   1.677   5.269   2.443 -1.0514 -1.2664 -0.5518
20354SOL     OW62502   5.145   3.220   8.857 -0.2305 -0.2888  0.1361
20354SOL    HW162503   5.069   3.168   8.829 -0.8304  0.4718  0.3288
20354SOL    HW262504   5.121   3.310   8.836  1.0136 -0.1344 -0.6607
20355SOL     OW62505   7.308   6.235   5.658 -0.1587  0.2262 -0.3414
20355SOL    HW162506   7.224   6.243   5.612 -1.8149 -0.5982  2.3274
20355SOL    HW262507   7.317   6.317   5.705 -0.7610 -0.6033  1.2946
20356SOL     OW62508   1.003   3.438   7.272 -0.1962 -0.2996  0.2885
20356SOL    HW162509   1.028   3.376   7.204  1.5180 -0.8678  1.3657
20356SOL    HW262510   1.012   3.524   7.231  2.6732 -0.5175  0.2442
20357SOL     OW62511   5.207   6.609   8.718  0.3846 -0.4338 -0.1781
20357SOL    HW162512   5.268   6.675   8.754 -1.3979  0.3302  1.6422
20357SOL    HW262513   5.144   6.660   8.668  0.1179 -1.0065 -0.4268
20358SOL     OW62514   3.564   2.810   6.484  0.0143 -0.1219 -0.0759
20358SOL    HW162515   3.644   2.828   6.435  0.9677 -1.2938  0.9665
20358SOL    HW262516   3.506   2.882   6.463  1.3981  0.8335 -0.7715
20359SOL     OW62517   1.336   4.743   5.640 -0.6339  0.5472 -0.5053
20359SOL    HW162518   1.398   4.670   5.637 -2.6240 -1.3048  0.7035
20359SOL    HW262519   1.346   4.779   5.728 -0.4479  1.0347 -0.7211
20360SOL     OW62520   1.057   0.972   4.473  0.2971 -0.1474 -0.6441
20360SOL    HW162521   1.125   0.990   4.408 -0.9018 -0.2858 -1.9897
20360SOL    HW262522   1.001   0.907   4.431 -1.8330  1.4462 -0.4373
20361SOL     OW62523   1.276   2.010  11.382  0.4033  0.2440 -0.0775
20361SOL    HW162524   1.291   2.006  11.288  1.5289  1.1074  0.0477
20361SOL    HW262525   1.307   2.097  11.408 -0.0872  0.0969  1.0500
20362SOL     OW62526   0.014   2.475   6.660  0.4927  0.4098  0.8305
20362SOL    HW162527  -0.060   2.504   6.607  1.9197 -0.7301 -1.9911
20362SOL    HW262528   0.075   2.549   6.659  1.1619 -0.1262 -0.4892
20363SOL     OW62529   3.018   6.312   4.338 -0.1112  0.0839 -0.5270
20363SOL    HW162530   3.013   6.243   4.405  0.1619  1.7626  1.3322
20363SOL    HW262531   3.102   6.355   4.354 -0.0162  0.4879 -2.0268
20364SOL     OW62532   4.039   3.423   7.284  0.4359  0.2558 -0.0942
20364SOL    HW162533   4.096   3.348   7.299 -1.1226 -0.5983  2.0595
20364SOL    HW262534   4.090   3.499   7.311  0.1448 -0.6347  3.4735
20365SOL     OW62535   2.904   6.902   4.785  0.3847 -0.0960 -0.3232
20365SOL    HW162536   2.863   6.830   4.736 -0.1576  1.3270 -2.0973
20365SOL    HW262537   2.940   6.861   4.863 -1.7443 -1.9461 -0.2190
20366SOL     OW62538   7.436   0.721   6.558 -0.0306 -0.6552 -0.0910
20366SOL    HW162539   7.344   0.724   6.533 -0.2178 -2.3778  0.2385
20366SOL    HW262540   7.482   0.700   6.477  0.0919  0.2918 -0.2727
20367SOL     OW62541   5.306   5.287   7.597 -0.1617  0.3735  0.8244
20367SOL    HW162542   5.338   5.375   7.577 -0.5552  0.3695  0.1564
20367SOL    HW262543   5.314   5.238   7.515  0.1669 -0.2555  1.2211
20368SOL     OW62544   3.272   0.090   0.288 -0.1622 -0.9504 -0.2047
20368SOL    HW162545   3.301   0.181   0.288 -1.1835 -0.5582  2.0299
20368SOL    HW262546   3.325   0.048   0.220  1.1098  1.0483 -0.5397
20369SOL     OW62547   1.361   6.110   8.928 -0.1305 -0.2321 -0.1903
20369SOL    HW162548   1.387   6.080   9.015 -1.1982  0.0164  0.2347
20369SOL    HW262549   1.306   6.187   8.944  0.5188  0.4578 -1.1411
20370SOL     OW62550   2.992   0.371   9.493  0.4086 -0.0756  0.3917
20370SOL    HW162551   3.087   0.371   9.497  0.4307  1.9328  1.8727
20370SOL    HW262552   2.968   0.464   9.501 -1.6539 -0.4202 -1.0302
20371SOL     OW62553   4.363   2.100   0.429 -0.3738 -0.4915  0.3284
20371SOL    HW162554   4.370   2.066   0.340 -0.1075 -1.7741  0.8206
20371SOL    HW262555   4.305   2.038   0.474 -1.4150  0.7543  0.7696
20372SOL     OW62556   5.912   1.497   3.480 -0.6120 -0.1637  0.2995
20372SOL    HW162557   5.948   1.543   3.404 -0.4303 -0.5766  0.1303
20372SOL    HW262558   5.962   1.531   3.554  0.1005 -0.6806  0.0752
20373SOL     OW62559   0.168   7.261  10.178 -0.2705  0.2335 -0.1900
20373SOL    HW162560   0.146   7.198  10.110 -1.7733 -0.8029  1.1778
20373SOL    HW262561   0.264   7.256  10.185 -0.2712 -1.1270 -0.8313
20374SOL     OW62562   6.511   4.645   5.426  0.5163 -0.2888  0.3772
20374SOL    HW162563   6.561   4.689   5.357 -1.3968  0.4409 -0.6203
20374SOL    HW262564   6.504   4.710   5.496 -2.5641  1.3477 -1.2115
20375SOL     OW62565   7.153   4.057   1.411  0.3937  0.4951 -0.2720
20375SOL    HW162566   7.123   3.967   1.403 -0.0595  0.5546  0.6829
20375SOL    HW262567   7.233   4.051   1.463  1.5337  0.4469 -1.9427
20376SOL     OW62568   5.896   5.464   3.112  0.8894  0.1408  0.0842
20376SOL    HW162569   5.827   5.398   3.110  1.5940 -0.6821 -3.4213
20376SOL    HW262570   5.854   5.543   3.076  1.3472  0.0986 -0.5527
20377SOL     OW62571   3.588   0.555   1.429  0.2663 -0.5039  0.1420
20377SOL    HW162572   3.584   0.560   1.525  0.2146  0.8393  0.0940
20377SOL    HW262573   3.602   0.462   1.410 -1.0329 -1.0034  1.3997
20378SOL     OW62574   2.703   6.461   1.956 -0.3199 -0.4224 -0.1754
20378SOL    HW162575   2.618   6.460   1.912 -0.6521  0.8074  0.3846
20378SOL    HW262576   2.722   6.369   1.974 -2.5948 -0.6466  1.6073
20379SOL     OW62577   7.062   0.731   0.070 -0.1294  0.3758 -0.1278
20379SOL    HW162578   7.092   0.642   0.084 -1.6165 -0.2048 -0.4282
20379SOL    HW262579   7.112   0.761  -0.007  0.3350 -0.2113 -0.0654
20380SOL     OW62580   0.093   5.348   2.614 -0.2017  0.3691 -0.6751
20380SOL    HW162581   0.017   5.386   2.658 -0.7229 -2.2762  0.9739
20380SOL    HW262582   0.057   5.308   2.534  0.1492  2.1696 -1.7908
20381SOL     OW62583   6.526   2.210  11.738 -0.4956  0.4776 -0.0913
20381SOL    HW162584   6.534   2.124  11.780 -1.8656  0.1556 -0.4466
20381SOL    HW262585   6.467   2.196  11.664  2.4815  0.8132 -2.7991
20382SOL     OW62586   4.754   7.583   1.776  0.1612  0.2675 -0.5987
20382SOL    HW162587   4.699   7.611   1.702 -0.5748  0.6440  0.0808
20382SOL    HW262588   4.693   7.567   1.847  0.6053 -2.3679 -0.7016
20383SOL     OW62589   4.056   2.783   0.545  0.4240  0.2408  0.0692
20383SOL    HW162590   4.141   2.743   0.563 -0.5061 -1.2088  1.6054
20383SOL    HW262591   3.994   2.729   0.594 -1.4448  1.0054 -1.3401
20384SOL     OW62592   5.181   5.902   8.903  0.4031  0.0971 -0.4010
20384SOL    HW162593   5.148   5.991   8.893 -0.0356 -0.1017 -0.7661
20384SOL    HW262594   5.264   5.912   8.949  0.4675  0.7100 -0.6453
20385SOL     OW62595   5.637   5.032  10.671  0.3213  0.0603 -0.0302
20385SOL    HW162596   5.694   4.988  10.608  0.8378 -0.3952  0.7332
20385SOL    HW262597   5.562   4.974  10.681 -0.0807  0.4541 -0.7167
20386SOL     OW62598   0.268   6.037   1.396  0.2518  0.4590  0.4877
20386SOL    HW162599   0.320   6.015   1.473 -0.1624  0.3619  0.7409
20386SOL    HW262600   0.188   5.985   1.405 -0.4417  1.5441  0.7389
20387SOL     OW62601   5.323   0.803   6.786 -0.9432  0.4703  0.0155
20387SOL    HW162602   5.315   0.892   6.819 -2.9407  0.4591 -0.2969
20387SOL    HW262603   5.380   0.758   6.849 -1.9870  1.2938  1.5951
20388SOL     OW62604   4.327   1.424  10.473  0.0125 -0.0056  0.5277
20388SOL    HW162605   4.251   1.481  10.470  0.6707  0.8649 -0.9590
20388SOL    HW262606   4.297   1.342  10.433  0.0275  0.6050 -0.8051
20389SOL     OW62607   5.764   4.229   1.623 -0.3855  0.1989  0.7579
20389SOL    HW162608   5.806   4.149   1.590 -1.9825 -0.2400 -0.2907
20389SOL    HW262609   5.718   4.265   1.547  1.7311  3.1393  0.7279
20390SOL     OW62610   0.682   2.431  10.687 -0.2881 -0.1239 -0.5517
20390SOL    HW162611   0.675   2.370  10.761  1.0930 -0.3950 -0.6113
20390SOL    HW262612   0.689   2.517  10.727  3.3264 -0.4568 -0.1098
20391SOL     OW62613   4.334   0.682   3.836 -0.4179  0.3842  0.3174
20391SOL    HW162614   4.303   0.638   3.916 -2.9017  1.2833 -0.0543
20391SOL    HW262615   4.402   0.625   3.802  1.7706  0.6557  3.7848
20392SOL     OW62616   2.380   1.654   5.974  0.5495 -0.3899 -0.5072
20392SOL    HW162617   2.422   1.590   5.917 -1.3190 -0.3687 -1.9846
20392SOL    HW262618   2.444   1.725   5.981  1.9721 -1.6549 -0.1813
20393SOL     OW62619   2.014   1.801   5.625  0.1563 -0.1577  0.2131
20393SOL    HW162620   1.937   1.784   5.679 -0.4288 -1.5228 -0.9949
20393SOL    HW262621   2.055   1.715   5.614 -0.6108 -0.2496 -2.7443
20394SOL     OW62622   0.670   6.786   9.707 -0.3379  0.0345 -0.1095
20394SOL    HW162623   0.739   6.841   9.746 -0.0850 -0.7652  0.6175
20394SOL    HW262624   0.604   6.778   9.776  0.0057 -1.2117  0.0959
20395SOL     OW62625   7.202   0.116   6.043  0.4005 -0.0189  0.2981
20395SOL    HW162626   7.271   0.051   6.056  2.4456  1.8462 -0.5381
20395SOL    HW262627   7.207   0.138   5.950 -2.1521 -0.6252 -0.0557
20396SOL     OW62628   7.603   5.869   6.258  0.2371  0.0385 -0.3916
20396SOL    HW162629   7.638   5.850   6.345 -1.1313 -1.5077 -0.1215
20396SOL    HW262630   7.600   5.965   6.253  0.9368  0.1536  0.9985
20397SOL     OW62631   6.255   3.803   4.039 -0.0375  0.8104  0.2781
20397SOL    HW162632   6.222   3.878   3.991 -0.8344  0.5292  0.3611
20397SOL    HW262633   6.338   3.782   3.998 -0.6581  0.6285 -0.9290
20398SOL     OW62634   3.051   4.479   2.804 -0.5562  0.7495  0.3617
20398SOL    HW162635   2.997   4.400   2.809 -0.0743  0.2240 -1.5686
20398SOL    HW262636   2.990   4.548   2.776 -0.6467  0.6480  0.3054
20399SOL     OW62637   5.132   7.580   7.907 -0.2584 -0.1535 -0.4448
20399SOL    HW162638   5.173   7.586   7.993 -1.1726 -0.4802  0.0255
20399SOL    HW262639   5.204   7.593   7.845  0.3729  0.2823  0.3665
20400SOL     OW62640   1.675   6.551   4.874 -0.0802 -0.5336 -0.3580
20400SOL    HW162641   1.694   6.643   4.855 -0.9082 -0.3582 -0.3940
20400SOL    HW262642   1.626   6.521   4.797 -1.7561 -0.3735  0.6153
20401SOL     OW62643   7.201   7.097   5.575 -0.3868 -0.8335  0.6747
20401SOL    HW162644   7.137   7.169   5.580 -0.8299 -1.1173 -0.5202
20401SOL    HW262645   7.273   7.133   5.523 -0.8504 -1.4083 -0.3872
20402SOL     OW62646   5.851   1.477  10.151  0.1110 -0.1198 -0.5079
20402SOL    HW162647   5.937   1.517  10.169 -0.3039  0.3251  0.5736
20402SOL    HW262648   5.869   1.383  10.146  0.5740 -0.0869  0.3256
20403SOL     OW62649   0.830   0.377   1.942  0.0905 -0.2754  0.3523
20403SOL    HW162650   0.828   0.381   2.038  3.1293 -0.2281  0.4907
20403SOL    HW262651   0.907   0.324   1.922 -1.3790 -1.6392 -2.1029
20404SOL     OW62652   4.395   4.730   4.460 -0.3496 -0.0400  0.0796
20404SOL    HW162653   4.410   4.658   4.521 -1.4586  0.3475  0.8479
20404SOL    HW262654   4.390   4.688   4.374  2.0687 -0.4986  0.1025
20405SOL     OW62655   2.933   7.581   4.078  0.3273 -0.0427 -0.4877
20405SOL    HW162656   2.997   7.535   4.132  0.8633  1.7925  0.5478
20405SOL    HW262657   2.961   7.673   4.081 -1.3475  0.5513 -1.4772
20406SOL     OW62658   1.949   7.134  10.632  0.2665 -0.5501 -0.4122
20406SOL    HW162659   1.976   7.124  10.723 -0.0202 -0.4702 -0.3151
20406SOL    HW262660   2.030   7.133  10.582  0.3041 -2.5554 -0.3549
20407SOL     OW62661   6.309   5.599   7.271 -0.3499 -0.8098 -0.6571
20407SOL    HW162662   6.333   5.507   7.254 -1.3515 -1.2542  0.2653
20407SOL    HW262663   6.386   5.648   7.243  1.0744 -2.0868  0.7750
20408SOL     OW62664   3.222   5.729   0.404 -0.0274  0.0752  1.0345
20408SOL    HW162665   3.204   5.817   0.437 -2.8444 -0.1871  0.4600
20408SOL    HW262666   3.155   5.674   0.446  0.0710 -1.3068 -0.5266
20409SOL     OW62667   7.022   1.054   6.216 -0.1113  0.1661  0.3477
20409SOL    HW162668   6.971   0.977   6.242 -1.1724  0.7163 -0.0403
20409SOL    HW262669   7.040   1.099   6.298  1.3979 -1.0048  0.6913
20410SOL     OW62670   0.901   1.069   5.689  0.0890 -0.4760  0.2865
20410SOL    HW162671   0.989   1.096   5.713 -0.0431  1.0020 -0.7038
20410SOL    HW262672   0.848   1.086   5.767  0.2163  1.2464  0.0419
20411SOL     OW62673   2.762   4.017   8.118  0.0358 -0.5015 -0.2568
20411SOL    HW162674   2.697   4.060   8.175  0.1711 -0.4248 -0.1603
20411SOL    HW262675   2.830   3.986   8.178 -0.7988 -2.2387 -0.1368
20412SOL     OW62676   2.092   5.553   2.693  0.0076 -0.3386  0.4417
20412SOL    HW162677   2.153   5.586   2.627 -1.5385  0.1971 -0.8136
20412SOL    HW262678   2.061   5.632   2.738 -0.3828 -0.5165  0.4871
20413SOL     OW62679   3.915   6.129  10.054 -0.2015  0.2515  0.0517
20413SOL    HW162680   3.856   6.104  10.124 -0.1225  1.6872  0.6733
20413SOL    HW262681   3.992   6.074  10.066 -1.1718 -1.2803 -0.4687
20414SOL     OW62682   6.728   4.569   3.982  0.1150 -0.4369 -0.1640
20414SOL    HW162683   6.780   4.491   3.967 -0.2426 -0.5379 -0.8977
20414SOL    HW262684   6.778   4.640   3.943 -0.2930 -0.5349 -0.8757
20415SOL     OW62685   0.690   1.827  10.727  0.1092  0.4594  0.2030
20415SOL    HW162686   0.650   1.844  10.642 -0.3381  0.8071  0.4789
20415SOL    HW262687   0.625   1.775  10.774 -0.1278  1.2368  0.7432
20416SOL     OW62688   7.908   0.380   3.266 -0.3385 -0.2548  0.3806
20416SOL    HW162689   7.815   0.363   3.253 -0.4743  0.4210  0.4091
20416SOL    HW262690   7.938   0.420   3.184  0.0362 -0.8824  0.2026
20417SOL     OW62691   7.422   1.135   6.147 -0.7545 -0.2121 -0.9484
20417SOL    HW162692   7.461   1.137   6.060 -0.7188  1.6990 -0.9319
20417SOL    HW262693   7.423   1.042   6.172  0.1008 -0.6751 -2.5714
20418SOL     OW62694   6.172   1.647   0.378  0.3254 -0.4100  0.3714
20418SOL    HW162695   6.197   1.573   0.433 -1.7823 -0.9812  0.6765
20418SOL    HW262696   6.076   1.645   0.378  0.2245  1.6899 -0.4885
20419SOL     OW62697   4.464   7.672   5.354  0.1843  0.1959  0.0385
20419SOL    HW162698   4.435   7.611   5.287  2.2536 -0.1929 -0.5401
20419SOL    HW262699   4.456   7.758   5.313 -2.3442  0.3808  0.7207
20420SOL     OW62700   4.565   2.722   2.020  0.2352  0.2067 -0.8080
20420SOL    HW162701   4.532   2.662   1.953  0.9672  0.4789 -1.4302
20420SOL    HW262702   4.629   2.671   2.069  0.1274  0.1877 -0.6839
20421SOL     OW62703   1.723   3.046   3.488 -0.1889  0.5167 -0.4548
20421SOL    HW162704   1.777   3.089   3.555 -0.7587  0.4759  0.0414
20421SOL    HW262705   1.786   3.002   3.431  0.2973  0.3567  0.1908
20422SOL     OW62706   2.728   1.483  11.914  0.5895  0.4838  0.4285
20422SOL    HW162707   2.723   1.388  11.921  1.1533  0.4839  1.0051
20422SOL    HW262708   2.643   1.514  11.946 -0.4522  0.1180 -1.8127
20423SOL     OW62709   6.267   6.236   1.878 -0.1436  0.1967 -0.1421
20423SOL    HW162710   6.338   6.289   1.841  1.5449  2.4673  5.3446
20423SOL    HW262711   6.193   6.297   1.884 -1.0136 -0.7026 -1.3367
20424SOL     OW62712   6.673   0.614   5.913  0.0199 -0.1355 -0.6331
20424SOL    HW162713   6.606   0.631   5.979  0.1888 -1.4468 -0.0833
20424SOL    HW262714   6.740   0.681   5.930  0.1921 -0.6091  0.7501
20425SOL     OW62715   7.847   5.789   0.701 -0.1763  0.5344  0.6579
20425SOL    HW162716   7.795   5.864   0.729 -0.7125  0.2108  0.5534
20425SOL    HW262717   7.789   5.740   0.643  0.5368  0.6014 -0.1399
20426SOL     OW62718   7.852   1.134   9.226 -0.0512  0.0235 -0.3018
20426SOL    HW162719   7.924   1.194   9.207 -0.6387  0.3854 -1.4935
20426SOL    HW262720   7.895   1.054   9.255  0.8027  0.4544 -0.3329
20427SOL     OW62721   7.744   7.297   2.239 -0.1319  0.5983 -0.1657
20427SOL    HW162722   7.658   7.261   2.258  0.5288 -1.7025 -1.2818
20427SOL    HW262723   7.793   7.226   2.198  2.1459  1.9863 -0.0775
20428SOL     OW62724   5.648   7.624   2.264 -0.5213 -0.1961 -0.1686
20428SOL    HW162725   5.719   7.688   2.261 -0.4822 -0.2800 -1.7372
20428SOL    HW262726   5.663   7.576   2.346  0.3346  0.7864  0.2731
20429SOL     OW62727   3.858   3.714  10.065 -0.2556  0.0122  0.7648
20429SOL    HW162728   3.808   3.684   9.989  0.1831  2.3498 -0.5458
20429SOL    HW262729   3.799   3.702  10.139 -1.8726  0.5335 -0.3955
20430SOL     OW62730   6.434   5.879   2.632 -0.9032 -0.4555 -0.7084
20430SOL    HW162731   6.383   5.941   2.581  1.6194  1.6082 -0.9354
20430SOL    HW262732   6.398   5.885   2.721 -2.6080 -0.9657 -1.3279
20431SOL     OW62733   0.700   5.602  11.833  0.1236 -0.1318 -0.2162
20431SOL    HW162734   0.629   5.599  11.768 -0.2089 -0.0809  0.1476
20431SOL    HW262735   0.780   5.598  11.780 -0.1513 -0.5553 -0.6076
20432SOL     OW62736   7.575   4.239   8.017 -0.2333 -0.5901 -0.3479
20432SOL    HW162737   7.637   4.206   7.952 -0.4426  1.3718 -1.6371
20432SOL    HW262738   7.497   4.185   8.004 -0.2648 -0.2434 -1.7363
20433SOL     OW62739   0.661   4.578   5.200  0.9377 -0.0417  0.0944
20433SOL    HW162740   0.595   4.646   5.216  0.4148 -0.8397  1.4369
20433SOL    HW262741   0.674   4.581   5.105 -1.0541  0.1269 -0.2253
20434SOL     OW62742   5.868   0.861   0.904  0.2065  0.2541 -0.7399
20434SOL    HW162743   5.870   0.810   0.823  4.0907  0.1751 -0.7904
20434SOL    HW262744   5.846   0.797   0.972  0.0041 -0.3541 -1.3621
20435SOL     OW62745   2.419   0.791   6.002 -0.3354  0.1985  0.2562
20435SOL    HW162746   2.490   0.821   6.058 -0.5819 -1.9919  1.8742
20435SOL    HW262747   2.344   0.846   6.027  0.4165  1.5792 -0.4680
20436SOL     OW62748   5.697   4.503   7.588 -0.9136 -0.7802 -0.1043
20436SOL    HW162749   5.792   4.512   7.579 -0.9770  2.6989  1.2896
20436SOL    HW262750   5.663   4.523   7.501 -0.4462 -0.6887 -0.2718
20437SOL     OW62751   1.668   7.606   7.602  0.2760 -0.3766 -0.4072
20437SOL    HW162752   1.679   7.646   7.516  1.2790  2.5381  0.9170
20437SOL    HW262753   1.751   7.561   7.618  0.5431  0.0507 -0.5544
20438SOL     OW62754   4.831   3.829  10.771 -0.1316  0.5209  0.1328
20438SOL    HW162755   4.923   3.857  10.770  0.0631 -0.0600  0.6251
20438SOL    HW262756   4.809   3.818  10.679  1.2940 -2.3606 -0.0025
20439SOL     OW62757   0.936   6.378   7.341  0.0632 -0.2937 -0.1901
20439SOL    HW162758   0.943   6.396   7.435  0.5574 -1.6977  0.0534
20439SOL    HW262759   0.843   6.362   7.326  0.3050 -2.6476  0.5756
20440SOL     OW62760   6.859   3.588   5.667  0.3132  0.3240  0.0741
20440SOL    HW162761   6.931   3.648   5.648  0.9485  0.0218  1.4084
20440SOL    HW262762   6.900   3.501   5.668 -0.4799 -0.0998 -1.2300
20441SOL     OW62763   2.181   4.473   0.872  0.3651 -0.0524  0.3854
20441SOL    HW162764   2.131   4.506   0.797  0.5107  0.1862  0.3947
20441SOL    HW262765   2.246   4.414   0.834 -0.1251 -0.6228  0.3975
20442SOL     OW62766   4.709   5.534   2.723  0.5797  0.0097  0.0906
20442SOL    HW162767   4.779   5.525   2.787  1.2361  0.8068 -0.4961
20442SOL    HW262768   4.751   5.573   2.647 -0.6267  1.1162 -0.0376
20443SOL     OW62769   7.699   3.693   5.011 -0.4326 -0.4090 -0.1645
20443SOL    HW162770   7.631   3.652   4.958 -1.8106  0.8502  0.5346
20443SOL    HW262771   7.758   3.734   4.948  0.4735 -2.5927 -0.8377
20444SOL     OW62772   6.758   3.915   8.039 -0.1574  0.5004  0.0430
20444SOL    HW162773   6.678   3.965   8.026 -0.0221  1.0246  1.1699
20444SOL    HW262774   6.772   3.871   7.955 -0.1215  2.5555 -1.0828
20445SOL     OW62775   2.002   0.756   8.555  0.0992 -0.0687  0.6351
20445SOL    HW162776   1.994   0.677   8.609  1.4912  0.0327  1.0301
20445SOL    HW262777   2.016   0.827   8.618 -0.5532  0.4099  0.2503
20446SOL     OW62778   5.274   4.773   6.518  0.1779 -0.5828 -0.1980
20446SOL    HW162779   5.361   4.807   6.501  0.1519 -0.0924  0.5862
20446SOL    HW262780   5.219   4.808   6.448 -0.0488  1.8359  1.0914
20447SOL     OW62781   2.558   1.491   5.033 -0.1702  0.0845 -0.2728
20447SOL    HW162782   2.540   1.429   5.103 -1.0006  1.1252  0.4580
20447SOL    HW262783   2.474   1.534   5.016  0.4111  1.1228 -0.6460
20448SOL     OW62784   5.031   6.779   0.225  0.4226 -0.8168 -0.6848
20448SOL    HW162785   5.022   6.683   0.221 -0.5473 -0.7428 -0.4554
20448SOL    HW262786   5.089   6.794   0.300 -0.7829 -1.1670  0.3477
20449SOL     OW62787   4.473   1.831   3.600 -0.0914 -0.3025  0.2853
20449SOL    HW162788   4.417   1.764   3.639 -0.0041 -0.5992 -0.0919
20449SOL    HW262789   4.473   1.902   3.664  2.1073 -1.7733  2.1114
20450SOL     OW62790   2.486   2.373   3.764 -0.0035  0.1428  0.5506
20450SOL    HW162791   2.564   2.327   3.733 -1.7375 -2.5559 -0.2162
20450SOL    HW262792   2.490   2.365   3.859  1.2277  1.1284  0.6063
20451SOL     OW62793   1.446   5.905  12.002 -0.2782  0.1783 -0.1768
20451SOL    HW162794   1.353   5.914  12.024 -1.0873 -2.2088 -2.0679
20451SOL    HW262795   1.457   5.811  11.985  1.7766  0.7728 -2.8207
20452SOL     OW62796   4.947   2.555  10.322  0.6044 -0.1334 -0.0694
20452SOL    HW162797   4.855   2.546  10.347 -0.1235  0.9415 -2.1250
20452SOL    HW262798   4.992   2.576  10.404 -1.1172  0.2412  0.8354
20453SOL     OW62799   2.459   2.772   9.679  0.0113 -0.1819 -0.0782
20453SOL    HW162800   2.479   2.760   9.586  0.6009 -0.1708  0.0415
20453SOL    HW262801   2.377   2.822   9.680 -1.5196 -2.4993 -0.6149
20454SOL     OW62802   3.694   5.240  10.107  0.2979  0.2388  0.9663
20454SOL    HW162803   3.660   5.296  10.176  2.6454  1.5826  1.1120
20454SOL    HW262804   3.787   5.231  10.126  0.9887  0.4219 -1.8141
20455SOL     OW62805   0.144   6.776   9.410 -0.2031  0.2949 -0.4451
20455SOL    HW162806   0.133   6.711   9.341 -0.6332 -0.8930  0.6990
20455SOL    HW262807   0.230   6.815   9.393 -0.2271 -0.0983 -1.5330
20456SOL     OW62808   3.520   2.191   6.859 -0.5624  0.3654 -0.5840
20456SOL    HW162809   3.590   2.172   6.922  0.4598  3.9557 -0.4333
20456SOL    HW262810   3.566   2.207   6.777 -1.5483 -0.4196 -1.3117
20457SOL     OW62811   0.007   5.544  10.296  0.2007 -0.2766 -0.2049
20457SOL    HW162812   0.024   5.454  10.267 -0.5842 -0.3735 -0.4034
20457SOL    HW262813  -0.081   5.563  10.263 -0.6594 -0.3197  1.9319
20458SOL     OW62814   6.787   3.120   5.668 -0.1515  0.5403 -0.6369
20458SOL    HW162815   6.791   3.036   5.622 -1.4308 -0.3367  0.7785
20458SOL    HW262816   6.696   3.149   5.657 -0.7154 -0.0738  1.9126
20459SOL     OW62817   6.228   4.378   7.664  0.2179  0.1008  0.0866
20459SOL    HW162818   6.290   4.345   7.599 -0.1140  1.2800 -0.8557
20459SOL    HW262819   6.258   4.466   7.684  0.9903 -0.6041  2.4458
20460SOL     OW62820   2.455   4.904   4.467  0.3814  0.2082 -0.4056
20460SOL    HW162821   2.518   4.838   4.493 -0.3578 -0.3985 -0.1202
20460SOL    HW262822   2.507   4.983   4.454  1.2427 -0.3789 -0.5608
20461SOL     OW62823   7.074   7.248   2.615  0.1011 -0.1764  1.0127
20461SOL    HW162824   7.106   7.247   2.525  0.4552 -0.9560  1.1405
20461SOL    HW262825   7.137   7.195   2.664 -1.4184 -1.8725  1.2351
20462SOL     OW62826   1.448   6.914   3.335 -0.6764  0.7322 -0.1162
20462SOL    HW162827   1.542   6.903   3.332 -0.5647  1.7797 -1.3132
20462SOL    HW262828   1.435   6.993   3.388 -0.9466  0.0560  0.8471
20463SOL     OW62829   3.882   7.456   1.447 -0.0295  0.1854  0.1513
20463SOL    HW162830   3.908   7.539   1.405  0.1759  0.5216  0.9229
20463SOL    HW262831   3.925   7.458   1.532 -0.3460 -0.5420  0.3350
20464SOL     OW62832   0.240   5.751   0.942  0.1596  0.3710 -0.0848
20464SOL    HW162833   0.333   5.729   0.953 -0.2543 -2.3227 -1.1358
20464SOL    HW262834   0.199   5.720   1.023 -0.1203 -0.8951 -0.6741
20465SOL     OW62835   7.227   0.854   5.380  0.4236  0.2782  0.4956
20465SOL    HW162836   7.172   0.890   5.450 -0.0029  2.5465 -0.8721
20465SOL    HW262837   7.182   0.881   5.299  2.0224 -0.3654 -0.6532
20466SOL     OW62838   1.914   5.305   1.218 -0.5009  0.0857  0.0194
20466SOL    HW162839   1.968   5.320   1.140 -0.7502 -0.7619 -0.3205
20466SOL    HW262840   1.826   5.328   1.190 -0.5966 -0.2589  0.0375
20467SOL     OW62841   4.907   3.755   6.702 -0.0511  0.1819 -0.1082
20467SOL    HW162842   4.970   3.811   6.748  0.0997  0.0176 -0.1107
20467SOL    HW262843   4.822   3.792   6.723 -0.0634 -0.5015  1.1738
20468SOL     OW62844   3.439   7.467   5.937  0.1154  0.1143 -0.5612
20468SOL    HW162845   3.487   7.487   5.856  1.0503 -0.5508 -0.1950
20468SOL    HW262846   3.349   7.453   5.909  0.6384 -1.3212 -1.7079
20469SOL     OW62847   7.420   2.441  10.675 -0.2917  0.0096  0.2445
20469SOL    HW162848   7.359   2.513  10.658  0.5267  1.2246  2.1377
20469SOL    HW262849   7.499   2.464  10.625  1.0008  2.0101  2.9175
20470SOL     OW62850   3.280   0.792   6.441  0.7215  0.3112  0.0993
20470SOL    HW162851   3.280   0.712   6.388 -2.6508 -0.9212  1.6872
20470SOL    HW262852   3.348   0.777   6.507  0.9444 -0.7377 -0.3427
20471SOL     OW62853   7.070   4.983   6.833 -0.1253  0.2271 -0.3752
20471SOL    HW162854   7.150   4.999   6.783 -0.2524  0.6872 -0.4420
20471SOL    HW262855   7.088   5.020   6.919  0.5581 -1.6758  0.3580
20472SOL     OW62856   7.599   1.467  12.339 -0.2763 -0.3884  0.3124
20472SOL    HW162857   7.519   1.499  12.380 -0.9248 -1.4305 -0.0760
20472SOL    HW262858   7.588   1.486  12.246 -0.4572 -1.2592  0.1444
20473SOL     OW62859   6.714   2.553   1.707 -0.1111 -0.0022  0.2447
20473SOL    HW162860   6.657   2.557   1.630 -0.5902  1.5184  0.6392
20473SOL    HW262861   6.766   2.633   1.702  0.4730 -0.3177  1.0515
20474SOL     OW62862   0.079   1.700  11.568 -0.8566 -0.1274 -0.4515
20474SOL    HW162863   0.154   1.641  11.574 -1.3580 -0.6497  1.4205
20474SOL    HW262864   0.004   1.641  11.554 -1.4385 -0.0558  2.0129
20475SOL     OW62865   4.175   4.946  10.885  0.0264  0.2674 -0.5007
20475SOL    HW162866   4.241   4.947  10.955  1.7216 -2.8117 -1.8686
20475SOL    HW262867   4.215   4.994  10.813  0.8813 -1.5773 -1.3216
20476SOL     OW62868   0.773   0.055   1.980  0.0994  0.3600  0.0684
20476SOL    HW162869   0.742  -0.033   1.960  3.2643 -1.1468  1.0633
20476SOL    HW262870   0.841   0.073   1.915 -0.2507  1.9459  0.0917
20477SOL     OW62871   7.132   4.034   4.322  0.3368 -0.1032 -0.0969
20477SOL    HW162872   7.156   4.091   4.395 -1.3287  3.1114 -1.8345
20477SOL    HW262873   7.055   3.987   4.354 -0.9995  2.0043  0.0291
20478SOL     OW62874   5.656   3.585   5.568  0.0029 -0.0116  0.5543
20478SOL    HW162875   5.641   3.495   5.598  0.1501 -0.0229  0.5906
20478SOL    HW262876   5.745   3.605   5.595  0.5283 -0.4028 -0.8120
20479SOL     OW62877   1.420   5.964   5.297  0.0794 -0.2063  0.3298
20479SOL    HW162878   1.471   6.045   5.307  0.6030 -0.5488  0.4666
20479SOL    HW262879   1.356   5.968   5.368 -0.3700  0.4245 -0.0905
20480SOL     OW62880   0.650   7.854   0.641 -0.1140 -0.3041  0.2914
20480SOL    HW162881   0.649   7.904   0.559  2.4674  0.5794  0.7277
20480SOL    HW262882   0.629   7.765   0.614 -0.6797  0.2115 -1.1046
20481SOL     OW62883   6.596   1.220   7.131 -0.2404  0.0096 -0.2453
20481SOL    HW162884   6.588   1.315   7.140 -0.3185 -0.1770  2.4344
20481SOL    HW262885   6.678   1.207   7.084  0.0580  1.3869 -0.1461
20482SOL     OW62886   4.599   3.166  10.687  0.6899  0.4064  0.1764
20482SOL    HW162887   4.646   3.216  10.621  0.6837  0.2690  0.0684
20482SOL    HW262888   4.618   3.074  10.666  1.3624  0.3812  0.8577
20483SOL     OW62889   4.850   7.716   6.959  0.0813  0.3426 -0.0701
20483SOL    HW162890   4.784   7.784   6.969  1.2583  1.3460  1.1801
20483SOL    HW262891   4.813   7.639   7.003  0.9966  1.8181  3.6405
20484SOL     OW62892   6.872   0.389   4.617  0.7628  0.0457 -0.6008
20484SOL    HW162893   6.820   0.408   4.539 -0.4885  1.4621  0.5382
20484SOL    HW262894   6.881   0.293   4.616  0.0655 -0.0339 -2.0109
20485SOL     OW62895   1.820   1.216   8.745  0.6026  0.5911 -0.0718
20485SOL    HW162896   1.898   1.262   8.777 -0.5372  0.7237  2.7950
20485SOL    HW262897   1.792   1.163   8.819 -1.7141  0.0889 -1.2309
20486SOL     OW62898   0.314   0.338  10.783  0.0958 -0.0548  0.3140
20486SOL    HW162899   0.232   0.336  10.833  0.3300 -0.8455  0.6774
20486SOL    HW262900   0.349   0.250  10.791  1.3573  0.4607  0.7869
20487SOL     OW62901   7.265   4.393   4.728 -0.2895  0.1890  0.0897
20487SOL    HW162902   7.312   4.347   4.798  0.0583  0.0903 -0.2061
20487SOL    HW262903   7.323   4.466   4.704  0.1168 -0.4262 -0.8634
20488SOL     OW62904   2.327   1.090   1.890 -0.2310  0.6870  0.3989
20488SOL    HW162905   2.419   1.116   1.890 -0.2580  0.9674 -1.8086
20488SOL    HW262906   2.282   1.157   1.942  0.6126  1.3297  0.3085
20489SOL     OW62907   1.532   0.050   4.011  0.5961  0.2714 -0.3273
20489SOL    HW162908   1.451   0.008   4.038  1.2405 -1.6403 -1.1273
20489SOL    HW262909   1.579   0.068   4.093 -0.8705  2.0524  0.1859
20490SOL     OW62910   6.903   5.379   4.145 -0.2450  0.3900 -0.3443
20490SOL    HW162911   6.958   5.307   4.178 -0.8668 -0.4992 -1.2118
20490SOL    HW262912   6.822   5.336   4.118 -1.2075  1.6270  0.4849
20491SOL     OW62913   5.231   7.688   4.100 -0.1500 -0.2623 -0.2435
20491SOL    HW162914   5.255   7.775   4.068  0.1449 -0.8807 -1.8112
20491SOL    HW262915   5.312   7.653   4.136 -0.5262  0.5113  1.4408
20492SOL     OW62916   6.567   7.203   4.350 -0.1803  0.0543  0.1272
20492SOL    HW162917   6.517   7.180   4.272 -0.3424 -0.5807  0.4169
20492SOL    HW262918   6.658   7.195   4.323 -0.2341  0.0023 -0.0426
20493SOL     OW62919   7.155   7.298   8.717 -0.2967  0.1043  0.1109
20493SOL    HW162920   7.174   7.233   8.785 -0.5207 -1.2825 -1.1078
20493SOL    HW262921   7.218   7.368   8.732  0.4827 -0.7579  0.9779
20494SOL     OW62922   6.730   0.375   5.243 -0.5274  0.5925  0.2030
20494SOL    HW162923   6.820   0.381   5.211 -0.6206 -0.1115 -0.1997
20494SOL    HW262924   6.703   0.466   5.256  0.1746  0.8142  0.1482
20495SOL     OW62925   0.052   3.043   3.851  0.1976 -0.1140 -0.6916
20495SOL    HW162926   0.068   3.136   3.861  1.7997 -0.0557 -2.9789
20495SOL    HW262927   0.078   3.005   3.935  1.7436  1.2659 -0.4924
20496SOL     OW62928   7.190   7.143   8.913 -0.4615 -0.4877  0.1265
20496SOL    HW162929   7.247   7.158   8.988  0.3589 -1.1066 -0.3535
20496SOL    HW262930   7.109   7.109   8.951 -0.6900  0.8071  0.8471
20497SOL     OW62931   5.527   3.215   8.511  0.5278  0.3112  0.3768
20497SOL    HW162932   5.567   3.136   8.474 -1.2058 -1.4190  2.0529
20497SOL    HW262933   5.587   3.241   8.581  0.4027 -0.3777  0.7525
20498SOL     OW62934   1.135   0.521   5.948  0.1787 -0.5356 -0.1712
20498SOL    HW162935   1.124   0.430   5.924  0.7136 -0.4854 -0.6269
20498SOL    HW262936   1.091   0.570   5.878  1.1702 -0.4115 -0.7403
20499SOL     OW62937   2.188   3.174   9.412  0.5946  0.6179  0.0329
20499SOL    HW162938   2.273   3.212   9.389  1.2364 -1.2303 -0.7933
20499SOL    HW262939   2.132   3.250   9.428  1.5718  1.9760 -2.3718
20500SOL     OW62940   1.387   1.616   2.019 -0.0777 -0.7410  0.2644
20500SOL    HW162941   1.322   1.687   2.013  1.5210  0.8289  0.6655
20500SOL    HW262942   1.381   1.586   2.109 -0.6018 -0.9576  0.1596
20501SOL     OW62943   2.831   3.013   7.495 -0.3996 -0.2341 -0.3379
20501SOL    HW162944   2.876   2.943   7.447  0.2066  0.5725 -0.9708
20501SOL    HW262945   2.838   2.986   7.587  1.4449 -0.1282 -0.4095
20502SOL     OW62946   5.667   7.901   5.630 -0.1574 -0.1747 -0.2703
20502SOL    HW162947   5.746   7.939   5.593  0.5826 -0.9066  0.5357
20502SOL    HW262948   5.697   7.823   5.677 -1.2174  0.1188  0.9279
20503SOL     OW62949   6.723   1.055   5.029  0.1442 -0.0433 -0.4254
20503SOL    HW162950   6.800   1.042   5.084  0.4698 -1.4269 -1.1698
20503SOL    HW262951   6.758   1.065   4.941 -0.4464  0.9143 -0.5607
20504SOL     OW62952   0.480   2.233   8.848  0.1906 -0.0529  0.4363
20504SOL    HW162953   0.538   2.267   8.779 -0.2606  0.7826  0.4626
20504SOL    HW262954   0.537   2.175   8.899  0.7917  0.1068 -0.0296
20505SOL     OW62955   4.732   0.802   7.517  0.1497  0.5637 -0.2392
20505SOL    HW162956   4.710   0.846   7.600 -0.2725  0.1121 -0.1111
20505SOL    HW262957   4.799   0.738   7.541 -0.0666  0.3431 -0.2246
20506SOL     OW62958   2.065   0.132  12.241 -0.3145 -0.6760 -0.3754
20506SOL    HW162959   2.009   0.202  12.207 -0.2058  0.1575  1.0825
20506SOL    HW262960   2.153   0.156  12.211 -0.6013 -1.6458 -2.1261
20507SOL     OW62961   3.526   0.988   2.852  0.1450 -0.3544 -0.0359
20507SOL    HW162962   3.434   1.014   2.851  0.0418 -0.6996 -1.1566
20507SOL    HW262963   3.524   0.893   2.865  0.3198 -0.3987 -0.3089
20508SOL     OW62964   1.077   2.471   6.085 -0.1681  0.1606 -0.2580
20508SOL    HW162965   1.161   2.508   6.058 -0.2444  0.7086  0.2359
20508SOL    HW262966   1.059   2.403   6.020  0.9142 -0.3396 -0.0536
20509SOL     OW62967   2.037   3.084   2.255  0.6257 -0.2105 -0.2237
20509SOL    HW162968   2.099   3.121   2.192 -1.3528  2.3389 -0.8348
20509SOL    HW262969   1.971   3.040   2.200 -1.0063  1.8539 -0.0348
20510SOL     OW62970   1.414   2.046   4.378 -0.2346  1.0117 -0.0193
20510SOL    HW162971   1.345   2.069   4.316  0.8467  3.6387 -0.3685
20510SOL    HW262972   1.456   2.130   4.400  1.4910 -0.2301  1.8000
20511SOL     OW62973   1.474   0.816   4.701  0.6922  0.0747  0.0651
20511SOL    HW162974   1.510   0.884   4.645  0.8552  0.8338  1.0604
20511SOL    HW262975   1.380   0.831   4.700  0.5917 -0.5653 -0.8228
20512SOL     OW62976   4.930   7.881   5.940  0.1118 -0.5585  0.1047
20512SOL    HW162977   4.854   7.908   5.992  0.0726 -0.3378 -0.0677
20512SOL    HW262978   5.004   7.927   5.978  0.2499 -1.1666  0.6020
20513SOL     OW62979   1.137   3.683  10.517 -0.5133 -0.6624  0.3207
20513SOL    HW162980   1.087   3.765  10.505  1.5733  0.6891  0.3959
20513SOL    HW262981   1.221   3.711  10.552 -0.1562 -3.0040  1.5078
20514SOL     OW62982   0.909   2.123   0.502 -0.3436 -0.6297  0.1367
20514SOL    HW162983   0.948   2.036   0.509  2.2297  0.4454  0.3943
20514SOL    HW262984   0.873   2.140   0.588  0.8145 -0.7350  0.6584
20515SOL     OW62985   1.182   5.022   0.283 -0.2724  0.3009 -0.1308
20515SOL    HW162986   1.141   5.108   0.289 -0.6489  0.1779 -0.7982
20515SOL    HW262987   1.184   4.989   0.373 -0.3304  0.9118  0.0960
20516SOL     OW62988   7.548   5.617  11.136 -0.0055  0.0900 -0.1480
20516SOL    HW162989   7.520   5.653  11.052  1.6827  1.0828 -0.3379
20516SOL    HW262990   7.483   5.649  11.198  1.0545  3.1324 -0.4025
20517SOL     OW62991   7.213   4.191   4.556 -0.7016 -0.2258  0.0838
20517SOL    HW162992   7.167   4.274   4.568 -0.7359 -0.2537  0.1457
20517SOL    HW262993   7.229   4.160   4.645 -0.7597 -0.3250  0.0593
20518SOL     OW62994   3.778   4.272   1.205 -0.2702  0.3457  0.1321
20518SOL    HW162995   3.851   4.254   1.146 -2.6722  0.4796 -3.0959
20518SOL    HW262996   3.732   4.347   1.166 -1.8592  0.6484  2.3544
20519SOL     OW62997   4.772   7.287   0.648 -0.1772 -0.9168  0.1561
20519SOL    HW162998   4.794   7.365   0.598  0.5457 -1.0126  0.3196
20519SOL    HW262999   4.678   7.296   0.666 -0.5349 -1.0505 -1.5036
20520SOL     OW63000   1.305   5.386  12.113  0.6055  0.0038 -0.2424
20520SOL    HW163001   1.266   5.385  12.201 -0.0794 -1.1416 -0.5358
20520SOL    HW263002   1.237   5.426  12.058  0.4292 -0.6512 -0.5044
20521SOL     OW63003   7.811   6.308   0.077  0.5320 -0.0828 -0.6230
20521SOL    HW163004   7.803   6.396   0.042  0.6911 -0.2466 -1.0777
20521SOL    HW263005   7.892   6.309   0.128 -0.8547  0.8115  1.7123
20522SOL     OW63006   6.547   2.215   2.348 -0.4753 -1.2255 -0.2684
20522SOL    HW163007   6.510   2.223   2.436 -1.0432 -2.4520 -0.3698
20522SOL    HW263008   6.519   2.294   2.303 -0.6957 -0.8732  0.4617
20523SOL     OW63009   6.066   5.837   2.035  0.3913 -0.0954 -0.1733
20523SOL    HW163010   5.998   5.769   2.040 -1.6282  1.7145 -1.0934
20523SOL    HW263011   6.094   5.849   2.126 -0.0125 -1.3906  0.1435
20524SOL     OW63012   6.604   2.141   6.605  0.1225  0.6560  0.1538
20524SOL    HW163013   6.659   2.148   6.527 -0.7047 -0.5778 -0.5674
20524SOL    HW263014   6.533   2.202   6.590 -0.6116 -0.3424 -0.5841
20525SOL     OW63015   6.752   1.878   5.541 -0.1174  0.6846  0.1966
20525SOL    HW163016   6.661   1.904   5.550  0.1086  1.4072  0.4453
20525SOL    HW263017   6.799   1.959   5.520  0.5068  0.3789  0.3766
20526SOL     OW63018   4.982   5.708   4.290  0.8810 -0.0515  0.3022
20526SOL    HW163019   4.989   5.794   4.248 -0.5531 -0.2055 -0.3049
20526SOL    HW263020   5.004   5.646   4.221  0.2331 -0.2263  0.2399
20527SOL     OW63021   6.840   4.089   0.988  0.3716  0.1015  0.2635
20527SOL    HW163022   6.875   4.178   0.991  2.1161 -0.5048 -0.5206
20527SOL    HW263023   6.803   4.081   0.900 -1.4699  0.5902  0.9370
20528SOL     OW63024   2.886   5.777  10.739  0.2370  0.5536  0.4862
20528SOL    HW163025   2.822   5.705  10.735 -0.4961  1.1734  0.8152
20528SOL    HW263026   2.873   5.825  10.657  0.5970  0.4292  0.3524
20529SOL     OW63027   6.008   4.582   2.640 -0.2218 -0.3855  0.5949
20529SOL    HW163028   6.088   4.545   2.602  0.4319  0.0001  1.5692
20529SOL    HW263029   6.019   4.677   2.634 -1.1096 -0.3177 -0.2686
20530SOL     OW63030   5.222   4.817   6.226  0.2847  0.6027 -0.0257
20530SOL    HW163031   5.129   4.822   6.249  0.0660 -2.4766  0.2700
20530SOL    HW263032   5.223   4.797   6.133  0.7018  1.5172 -0.2212
20531SOL     OW63033   3.192   3.207   7.101  0.2628  0.3795  0.0663
20531SOL    HW163034   3.286   3.215   7.121  0.2731  0.7726 -0.1137
20531SOL    HW263035   3.184   3.243   7.012 -0.2553  1.5952  0.5771
20532SOL     OW63036   7.709   6.994   2.472  0.3400  0.4514  0.3582
20532SOL    HW163037   7.772   7.065   2.462 -1.4472  1.9241 -1.4536
20532SOL    HW263038   7.707   6.952   2.386  0.8955 -1.4598  1.2212
20533SOL     OW63039   1.736   4.698  10.763 -0.5289  0.0054  0.0061
20533SOL    HW163040   1.674   4.751  10.712 -0.0794 -0.1067 -0.6649
20533SOL    HW263041   1.770   4.759  10.829 -0.9956  0.1936  0.0811
20534SOL     OW63042   5.552   6.579   4.024  0.0585  0.3701  0.2800
20534SOL    HW163043   5.612   6.528   4.079  0.5409  0.5120 -0.1163
20534SOL    HW263044   5.477   6.596   4.081  0.4120  0.2328  0.7904
20535SOL     OW63045   5.852   3.298   4.977 -0.4697  0.1047 -0.0626
20535SOL    HW163046   5.909   3.282   5.053  0.4334  0.7935 -0.5722
20535SOL    HW263047   5.888   3.378   4.937 -0.5762 -0.5632 -1.5394
20536SOL     OW63048   0.463   2.794   0.608  0.3158  0.1018  0.0803
20536SOL    HW163049   0.551   2.771   0.637  1.3501  0.7752 -2.2975
20536SOL    HW263050   0.408   2.775   0.683  2.3850 -0.9604  1.4353
20537SOL     OW63051   2.717   2.182   2.941  0.0595 -0.0158  0.4078
20537SOL    HW163052   2.652   2.219   3.000 -0.4902  0.4861 -0.4961
20537SOL    HW263053   2.797   2.178   2.994  0.2055  2.6369  0.5038
20538SOL     OW63054   2.209   0.590  12.200 -0.4125 -0.0642  0.0567
20538SOL    HW163055   2.280   0.526  12.203  0.0403  0.3802 -0.8904
20538SOL    HW263056   2.144   0.550  12.143  0.1653  0.5918 -1.0917
20539SOL     OW63057   1.357   7.115  10.182  0.0957 -0.1234 -0.3785
20539SOL    HW163058   1.266   7.143  10.187  0.6977  1.7024  1.3395
20539SOL    HW263059   1.404   7.175  10.239  2.3333 -1.2942 -0.8865
20540SOL     OW63060   6.649   0.506   4.059 -0.2516 -0.1545  0.4677
20540SOL    HW163061   6.587   0.500   4.132  0.6113  2.0314  1.4562
20540SOL    HW263062   6.731   0.471   4.095 -0.0645  0.0671  0.2574
20541SOL     OW63063   0.150   7.820   4.839 -0.7832  0.2795  0.2244
20541SOL    HW163064   0.235   7.803   4.797 -0.8093  0.2264  0.1928
20541SOL    HW263065   0.105   7.881   4.780 -0.9365 -0.0215  0.0290
20542SOL     OW63066   7.672   0.564   5.757  0.0192 -0.0231  0.0235
20542SOL    HW163067   7.649   0.472   5.758 -1.2555  0.2721 -0.4622
20542SOL    HW263068   7.686   0.586   5.849 -1.2938 -0.3320  0.3215
20543SOL     OW63069   5.443   5.964   0.346 -0.0268 -0.2929  0.7543
20543SOL    HW163070   5.492   5.890   0.381  0.1644  0.2779  1.7337
20543SOL    HW263071   5.467   6.038   0.402  0.8557  0.8528 -1.0441
20544SOL     OW63072   6.027   3.745   2.739  0.2633 -0.1727 -0.1870
20544SOL    HW163073   6.022   3.834   2.707  0.1766 -0.0437  0.1743
20544SOL    HW263074   6.028   3.690   2.661  2.3449  0.2207 -0.4891
20545SOL     OW63075   4.682   0.015   7.435  0.0634  0.1564  0.1561
20545SOL    HW163076   4.732  -0.024   7.364 -0.5823 -1.3720  0.4869
20545SOL    HW263077   4.746   0.062   7.487  0.7960 -0.0069 -0.5829
20546SOL     OW63078   4.174   3.540   0.111  0.3606 -0.2966  0.2082
20546SOL    HW163079   4.209   3.473   0.169 -0.7181 -1.7224 -0.7026
20546SOL    HW263080   4.165   3.495   0.026  1.1301  1.4741 -0.8777
20547SOL     OW63081   2.468   1.189   0.004  0.2097  0.5606  0.5114
20547SOL    HW163082   2.388   1.219   0.047 -0.7339  0.2913 -0.9694
20547SOL    HW263083   2.518   1.146   0.074 -1.3450 -0.0574  1.3006
20548SOL     OW63084   2.730   0.374   0.703  0.0930  0.2003  0.4601
20548SOL    HW163085   2.725   0.289   0.659 -2.4543  0.5276 -0.0291
20548SOL    HW263086   2.812   0.412   0.670  0.4740 -1.3745 -0.5579
20549SOL     OW63087   5.731   6.674  10.349 -0.6643  0.3957 -0.2306
20549SOL    HW163088   5.696   6.759  10.374 -0.5901 -0.1269  1.8370
20549SOL    HW263089   5.815   6.668  10.395 -0.6513 -0.7749 -0.3713
20550SOL     OW63090   0.763   7.883   8.705 -0.2811  0.3211 -0.1739
20550SOL    HW163091   0.769   7.809   8.645  0.8894 -0.2143  0.5771
20550SOL    HW263092   0.731   7.846   8.787  1.6824  0.3433  0.6492
20551SOL     OW63093   5.651   0.950   5.250  0.5168 -0.1461 -0.6000
20551SOL    HW163094   5.644   1.041   5.222 -1.3751 -0.5417 -1.5444
20551SOL    HW263095   5.683   0.903   5.173  0.6357 -0.4184 -0.3869
20552SOL     OW63096   7.545   6.468  11.784 -0.3794 -0.1377  0.2709
20552SOL    HW163097   7.478   6.448  11.849  0.3295  0.4584  1.2135
20552SOL    HW263098   7.598   6.388  11.780 -1.6728 -0.9683 -1.1867
20553SOL     OW63099   4.729   7.517   9.129  0.4171 -0.0205 -0.2758
20553SOL    HW163100   4.732   7.439   9.074  1.7843  0.6442 -1.2126
20553SOL    HW263101   4.740   7.590   9.068 -2.1702  1.0346  0.3977
20554SOL     OW63102   1.549   5.617   6.071  0.5542 -0.2731 -0.3427
20554SOL    HW163103   1.553   5.618   6.166 -0.5749  0.9016 -0.2816
20554SOL    HW263104   1.456   5.612   6.051  0.7645 -0.2517 -1.3864
20555SOL     OW63105   3.372   6.654   1.318 -0.4188 -0.0935  0.2075
20555SOL    HW163106   3.361   6.617   1.230  1.2456  1.3148 -0.6688
20555SOL    HW263107   3.284   6.656   1.355 -1.0330 -1.5613 -1.0618
20556SOL     OW63108   3.122   0.014   1.144 -0.1601  0.3186 -0.3774
20556SOL    HW163109   3.200   0.044   1.097  0.7117  0.2358  0.9526
20556SOL    HW263110   3.122   0.066   1.225  0.0178 -1.5452  0.8640
20557SOL     OW63111   7.150   7.518   1.729  0.3003 -0.0259 -0.8313
20557SOL    HW163112   7.070   7.466   1.738  1.4433 -2.0108 -1.3923
20557SOL    HW263113   7.218   7.464   1.770  1.8305  0.3033 -2.7753
20558SOL     OW63114   3.214   1.378   0.588  0.0271  0.2324  0.0467
20558SOL    HW163115   3.180   1.302   0.635  0.1477  0.6152  0.7766
20558SOL    HW263116   3.140   1.411   0.538  0.5745 -1.8363 -2.3283
20559SOL     OW63117   6.233   2.843   0.915  0.2896 -0.1666 -0.2774
20559SOL    HW163118   6.260   2.935   0.917  1.9505 -0.6201 -0.0468
20559SOL    HW263119   6.139   2.845   0.899  0.4297  1.5448 -1.0002
20560SOL     OW63120   3.091   7.406  11.680 -0.2251 -0.0264  0.3226
20560SOL    HW163121   3.006   7.431  11.644 -0.2003 -0.4646 -0.0622
20560SOL    HW263122   3.073   7.382  11.771 -0.1348  1.9956  0.9109
20561SOL     OW63123   4.011   3.387   4.588 -0.4611 -0.3428  0.1997
20561SOL    HW163124   3.923   3.416   4.563 -0.0877 -0.1534 -0.9375
20561SOL    HW263125   4.039   3.330   4.516  0.2758 -0.5564  0.6429
20562SOL     OW63126   0.591   3.813   4.710  0.0219  0.3552 -0.2238
20562SOL    HW163127   0.563   3.843   4.624 -0.8913 -1.1303 -0.4825
20562SOL    HW263128   0.660   3.749   4.691  1.1765  1.4169  0.2611
20563SOL     OW63129   0.708   7.009  12.247  0.0561 -0.1001 -0.0022
20563SOL    HW163130   0.768   6.951  12.292 -0.3611 -0.1707  0.4725
20563SOL    HW263131   0.704   6.976  12.157  2.7887  1.4811 -0.8103
20564SOL     OW63132   0.915   5.576  11.633  0.0593  0.0402  0.4099
20564SOL    HW163133   0.970   5.641  11.677 -1.1720  2.5669 -1.5082
20564SOL    HW263134   0.924   5.596  11.540  1.5056 -4.2223 -0.5705
20565SOL     OW63135   3.448   6.595   0.047 -0.2937  0.5110  0.0807
20565SOL    HW163136   3.407   6.508   0.041 -0.5825  0.7268 -1.4604
20565SOL    HW263137   3.457   6.623  -0.044  0.2218  1.9071  0.5460
20566SOL     OW63138   7.060   7.688   4.407  0.0687  0.3093 -0.2321
20566SOL    HW163139   7.153   7.708   4.394  0.1835 -0.5317 -0.8260
20566SOL    HW263140   7.014   7.755   4.357  0.3486  0.8270  0.1983
20567SOL     OW63141   4.141   2.790   8.083  0.1125 -0.3957  0.4633
20567SOL    HW163142   4.122   2.827   7.997 -2.0120 -1.3737  0.4582
20567SOL    HW263143   4.085   2.839   8.143  2.5990  1.2729  1.6059
20568SOL     OW63144   2.929   7.390   0.280  0.3989 -0.0181  0.3269
20568SOL    HW163145   2.982   7.464   0.250  0.5039 -0.3489 -0.3200
20568SOL    HW263146   2.920   7.333   0.203 -0.0350 -0.4730  0.7002
20569SOL     OW63147   4.871   0.401   5.932  0.0547 -0.1709 -1.1539
20569SOL    HW163148   4.925   0.422   6.008 -1.0948 -1.5712  0.1287
20569SOL    HW263149   4.933   0.393   5.860  1.3479 -0.0450 -0.1014
20570SOL     OW63150   0.411   3.408   7.302 -0.1138  0.1632  0.3590
20570SOL    HW163151   0.358   3.337   7.265  1.0631 -1.0889  1.0029
20570SOL    HW263152   0.452   3.449   7.226 -1.1070  0.4356 -0.0507
20571SOL     OW63153   5.389   2.768   3.364  0.1769  0.2062  0.3246
20571SOL    HW163154   5.359   2.684   3.329  0.4795 -0.0242  0.6148
20571SOL    HW263155   5.309   2.812   3.393  0.1295 -0.5093  1.3328
20572SOL     OW63156   4.802   7.381   3.172  0.2233 -0.7328  0.0120
20572SOL    HW163157   4.850   7.302   3.199 -1.1441 -2.1388 -1.4377
20572SOL    HW263158   4.825   7.391   3.079 -0.9813 -0.4722 -0.2639
20573SOL     OW63159   7.821   2.195   8.946  0.1717  0.1227 -0.8905
20573SOL    HW163160   7.740   2.237   8.916 -0.0804  0.0945 -0.2743
20573SOL    HW263161   7.859   2.258   9.007 -0.4168 -0.6776  0.3549
20574SOL     OW63162   0.577   3.315   8.016 -0.2520  0.0244 -0.4235
20574SOL    HW163163   0.627   3.382   8.063  0.3540 -0.1963 -0.7322
20574SOL    HW263164   0.574   3.346   7.925  0.0509 -0.3684 -0.5733
20575SOL     OW63165   1.450   6.855   3.899  0.1250 -0.5653 -0.2249
20575SOL    HW163166   1.508   6.898   3.962 -0.1158 -0.0881 -0.3306
20575SOL    HW263167   1.503   6.782   3.865  1.0514  0.4568 -1.0748
20576SOL     OW63168   6.157   2.349   1.380  0.3398 -0.2599 -0.4615
20576SOL    HW163169   6.116   2.406   1.445  1.3408 -0.7852  0.6455
20576SOL    HW263170   6.098   2.274   1.373 -0.2689  0.2461 -0.9076
20577SOL     OW63171   0.668   2.776  10.062 -0.3984  0.7182  0.3096
20577SOL    HW163172   0.623   2.702  10.102  1.3025 -0.6683 -0.2346
20577SOL    HW263173   0.699   2.828  10.137 -0.3379  0.0996  0.7225
20578SOL     OW63174   7.189   1.562   4.281  0.2911  0.3833  0.0291
20578SOL    HW163175   7.181   1.482   4.334  0.8779  0.6393  0.5209
20578SOL    HW263176   7.099   1.584   4.258  0.0863 -0.1786  0.2538
20579SOL     OW63177   5.866   2.303   6.920 -0.1740 -0.2588  0.6672
20579SOL    HW163178   5.856   2.213   6.889 -1.6520 -0.0286  0.3988
20579SOL    HW263179   5.777   2.338   6.921 -0.0364  0.3006  3.5241
20580SOL     OW63180   1.717   0.528   6.361  0.1742  0.1448  0.7079
20580SOL    HW163181   1.707   0.449   6.308  0.4974 -0.1764  1.1265
20580SOL    HW263182   1.776   0.503   6.431 -0.7591  0.3709  1.6052
20581SOL     OW63183   2.313   4.416  12.309  0.3447  0.2346  0.3748
20581SOL    HW163184   2.255   4.401  12.235  1.1516 -0.9160 -0.0509
20581SOL    HW263185   2.357   4.498  12.290 -1.4065  1.3501  0.9031
20582SOL     OW63186   0.707   3.404   4.082  0.0123  0.5418 -0.1509
20582SOL    HW163187   0.682   3.336   4.145  1.5210 -0.1051 -0.2216
20582SOL    HW263188   0.783   3.368   4.036  1.4263  2.6178  0.4044
20583SOL     OW63189   1.812   1.110   0.359  0.2231  0.4973  0.1874
20583SOL    HW163190   1.761   1.080   0.435  0.5630 -0.2837  0.1221
20583SOL    HW263191   1.788   1.050   0.289  0.5034  0.7241 -0.1076
20584SOL     OW63192   4.862   4.349   5.885  0.3303  0.3641  0.3095
20584SOL    HW163193   4.841   4.285   5.817  0.4535  0.4306  0.2066
20584SOL    HW263194   4.864   4.299   5.966  1.7955 -0.0211  0.0506
20585SOL     OW63195   2.564   2.771   2.042  0.1931 -0.1328 -0.0919
20585SOL    HW163196   2.614   2.815   1.973 -0.1984  0.1559 -0.1955
20585SOL    HW263197   2.630   2.723   2.093  0.5731  0.2531 -0.2180
20586SOL     OW63198   5.095   6.931   0.979 -0.0372  0.3149  0.4901
20586SOL    HW163199   5.045   7.008   1.005 -1.7480 -0.7944  0.6345
20586SOL    HW263200   5.123   6.949   0.890 -0.1174  1.2327  0.6441
20587SOL     OW63201   2.317   3.682   2.550  0.7796 -0.5392 -0.1718
20587SOL    HW163202   2.249   3.624   2.516  0.1939 -0.2774  0.5189
20587SOL    HW263203   2.347   3.639   2.630 -1.4689  1.2845  1.7820
20588SOL     OW63204   4.795   3.485   1.350 -0.0596  0.0766 -0.0210
20588SOL    HW163205   4.889   3.471   1.354  0.1775  1.5439  3.3219
20588SOL    HW263206   4.784   3.564   1.295  0.4039 -1.0766 -1.8566
20589SOL     OW63207   3.595   2.683   9.187 -0.1533  0.3811  0.1340
20589SOL    HW163208   3.531   2.749   9.212  0.2608  1.2056 -0.8885
20589SOL    HW263209   3.545   2.601   9.183 -1.1635  1.0033 -0.6584
20590SOL     OW63210   2.188   0.229   8.237 -0.0386  0.3360 -0.0937
20590SOL    HW163211   2.177   0.139   8.207 -0.1335  0.1381  0.5170
20590SOL    HW263212   2.099   0.263   8.244  0.0410  1.0299 -1.9097
20591SOL     OW63213   2.358   4.508   8.162  0.0246  0.0062 -0.0385
20591SOL    HW163214   2.444   4.520   8.201 -0.4226 -0.8448  1.2832
20591SOL    HW263215   2.373   4.448   8.089  1.1074  2.7443 -2.2569
20592SOL     OW63216   3.647   4.625   0.965  0.3273 -0.4437  0.3914
20592SOL    HW163217   3.590   4.696   0.935 -0.8807 -1.4463  0.2683
20592SOL    HW263218   3.680   4.655   1.050  1.0620  0.9171 -0.3293
20593SOL     OW63219   2.678   4.790   0.162  0.0102  0.0121  0.1358
20593SOL    HW163220   2.594   4.823   0.195  0.0965  0.4507 -0.0790
20593SOL    HW263221   2.699   4.847   0.088 -0.9263 -1.8887 -1.6789
20594SOL     OW63222   6.220   2.830   7.413  0.0615 -0.0998 -0.1796
20594SOL    HW163223   6.196   2.751   7.462 -1.0883  1.3725  1.7618
20594SOL    HW263224   6.136   2.864   7.381  0.6926 -0.4700 -2.4131
20595SOL     OW63225   7.233   2.574   6.589  0.2387 -0.0314  0.5468
20595SOL    HW163226   7.237   2.627   6.669  1.5063  0.0573  0.4466
20595SOL    HW263227   7.175   2.623   6.531 -0.3634  0.1128  1.2590
20596SOL     OW63228   7.086   0.923   2.389 -0.4336  0.2320 -0.2128
20596SOL    HW163229   7.071   1.018   2.379 -0.1598  0.3539  0.5146
20596SOL    HW263230   7.178   0.916   2.412 -0.1304 -0.3085 -1.4966
20597SOL     OW63231   7.922   1.213   9.953  0.3953  0.6459  0.5029
20597SOL    HW163232   7.878   1.269   9.889 -0.5583 -0.2620  0.3392
20597SOL    HW263233   7.943   1.133   9.904 -0.9260 -0.3240  1.4473
20598SOL     OW63234   3.794   1.383   0.333  0.2342 -0.1443  0.0549
20598SOL    HW163235   3.828   1.296   0.312 -0.8019 -0.3994 -0.6494
20598SOL    HW263236   3.873   1.437   0.346  0.9010 -1.3902  1.5332
20599SOL     OW63237   6.806   5.134  10.811 -0.5448 -0.4853 -0.3041
20599SOL    HW163238   6.834   5.180  10.732 -0.1420  0.2608  0.2638
20599SOL    HW263239   6.725   5.090  10.786 -0.7491  0.2525 -0.9600
20600SOL     OW63240   0.235   6.080   7.769  0.3607  0.5597  0.1606
20600SOL    HW163241   0.295   6.014   7.733  0.6849  1.0322 -0.1795
20600SOL    HW263242   0.149   6.038   7.768  0.8405 -0.5278  1.6651
20601SOL     OW63243   7.260   7.876   7.729 -0.1193  0.1813  0.2353
20601SOL    HW163244   7.234   7.926   7.806 -2.0803 -0.7817  0.2676
20601SOL    HW263245   7.183   7.824   7.707  1.0839 -1.1217 -1.1461
20602SOL     OW63246   3.518   0.577   0.172 -0.0442  0.0782 -0.1693
20602SOL    HW163247   3.538   0.615   0.087  2.1373 -0.1871  0.1560
20602SOL    HW263248   3.463   0.643   0.215 -0.2530  0.7135 -1.3696
20603SOL     OW63249   4.191   0.708   9.504  0.4991  0.2713 -0.1903
20603SOL    HW163250   4.232   0.657   9.434  0.3264 -1.0315  0.6184
20603SOL    HW263251   4.187   0.648   9.578 -2.8815  0.3005 -0.2126
20604SOL     OW63252   6.329   3.752   0.985  0.5117  0.0291 -0.4352
20604SOL    HW163253   6.408   3.761   1.039 -0.0733  1.2291  0.2799
20604SOL    HW263254   6.350   3.798   0.904  1.3380 -1.6409 -1.2100
20605SOL     OW63255   7.802   1.668   4.229 -0.6120 -0.5540 -0.1759
20605SOL    HW163256   7.738   1.633   4.168  2.1026 -3.9640 -1.3773
20605SOL    HW263257   7.869   1.707   4.173  0.1976 -0.4772  0.8258
20606SOL     OW63258   5.275   3.114   9.075 -0.0229  0.4881 -0.1658
20606SOL    HW163259   5.227   3.136   8.995  0.9044 -1.9700 -1.5076
20606SOL    HW263260   5.212   3.128   9.145 -1.6457  0.4424 -1.5496
20607SOL     OW63261   4.177   6.038   3.019  0.1421  0.1163 -0.4875
20607SOL    HW163262   4.251   5.978   3.007  0.2682  0.3635 -0.9787
20607SOL    HW263263   4.125   5.998   3.089 -0.1052 -0.8975 -1.2228
20608SOL     OW63264   4.345   0.519   6.296 -0.1083 -0.5183  0.1869
20608SOL    HW163265   4.312   0.592   6.349 -1.6238 -1.3039  0.3692
20608SOL    HW263266   4.270   0.491   6.244  0.6012 -1.6008 -0.2860
20609SOL     OW63267   6.663   2.169  10.397  0.5374 -0.0901  0.6534
20609SOL    HW163268   6.605   2.149  10.323 -0.0851 -0.8378  1.3353
20609SOL    HW263269   6.745   2.125  10.374  0.3371 -0.3465  0.4195
20610SOL     OW63270   5.321   3.642   8.814 -0.0571  0.2636  0.0172
20610SOL    HW163271   5.282   3.593   8.886  0.3105 -0.8665 -0.5281
20610SOL    HW263272   5.250   3.697   8.780 -0.1775  0.9723  1.3516
20611SOL     OW63273   7.166   1.328   2.089 -0.7657 -0.1500  0.4940
20611SOL    HW163274   7.099   1.395   2.073  0.4916  1.3560  1.2166
20611SOL    HW263275   7.168   1.276   2.009 -0.5669  1.8074 -0.8260
20612SOL     OW63276   0.302   0.004   1.376  0.2516  0.0425  0.3937
20612SOL    HW163277   0.233   0.039   1.433  0.3308 -0.0363  0.5370
20612SOL    HW263278   0.255  -0.027   1.299  0.0671 -0.5219  0.7333
20613SOL     OW63279   2.411   7.852   6.792  0.6202  0.2357  0.1276
20613SOL    HW163280   2.326   7.816   6.816  0.6311  0.5761  0.6962
20613SOL    HW263281   2.471   7.818   6.858  0.6145  1.3510  0.7261
20614SOL     OW63282   3.606   3.495   1.468 -0.1300 -0.8482 -0.0408
20614SOL    HW163283   3.555   3.471   1.546 -2.2089 -0.3218 -1.1716
20614SOL    HW263284   3.549   3.554   1.419  0.9864 -1.3996 -2.1304
20615SOL     OW63285   5.593   1.168  10.358 -0.0576  0.0090 -0.4648
20615SOL    HW163286   5.503   1.139  10.371  0.2986 -1.2209 -0.6542
20615SOL    HW263287   5.609   1.155  10.265  0.7531 -1.0943 -0.1872
20616SOL     OW63288   4.432   0.146   2.616  0.3855  0.2072 -0.4313
20616SOL    HW163289   4.437   0.056   2.649 -0.0919 -0.0287 -0.9726
20616SOL    HW263290   4.364   0.187   2.668  1.7113  0.7651  0.9347
20617SOL     OW63291   1.075   4.906   0.872 -0.3233 -0.3933 -0.3526
20617SOL    HW163292   0.998   4.854   0.854 -0.2934  0.2076 -2.4058
20617SOL    HW263293   1.108   4.933   0.786  1.4699  0.3785  0.5064
20618SOL     OW63294   0.711   7.494   0.142 -0.1391  0.1820  0.5962
20618SOL    HW163295   0.621   7.514   0.116 -0.0283 -0.1274 -0.0547
20618SOL    HW263296   0.755   7.579   0.143 -0.1388  0.1979 -0.2816
20619SOL     OW63297   0.924   4.291   9.134 -0.1672 -0.0733  0.0191
20619SOL    HW163298   0.836   4.265   9.163 -0.0560 -0.0518  0.3730
20619SOL    HW263299   0.970   4.316   9.214  0.4250 -0.8680 -0.0567
20620SOL     OW63300   6.025   6.555   5.573  0.4164  0.2122 -0.5233
20620SOL    HW163301   6.094   6.490   5.563 -0.0779 -0.2521 -0.9750
20620SOL    HW263302   6.072   6.636   5.593  1.1124 -0.0238 -1.1562
20621SOL     OW63303   6.557   7.818   8.132 -0.2396 -0.1997 -0.5555
20621SOL    HW163304   6.545   7.844   8.223 -1.3728 -0.1785 -0.7028
20621SOL    HW263305   6.481   7.763   8.112 -0.1452  0.0172 -1.5684
20622SOL     OW63306   6.077   7.378   0.790 -0.5892  0.3396  0.4860
20622SOL    HW163307   6.131   7.444   0.834  0.0618  1.5692 -1.9351
20622SOL    HW263308   6.094   7.297   0.837  4.3686  0.3595 -0.7041
20623SOL     OW63309   0.906   1.466   1.803  0.2224  0.3575  0.2686
20623SOL    HW163310   0.967   1.395   1.824 -0.8070 -0.6616 -0.1277
20623SOL    HW263311   0.958   1.546   1.816  1.2525 -0.4289  1.2160
20624SOL     OW63312   0.071   3.984   2.659 -0.0825 -0.3662 -0.6300
20624SOL    HW163313   0.056   3.892   2.639 -1.4972 -0.4140  0.5411
20624SOL    HW263314   0.118   3.983   2.742 -2.1176 -0.0360  0.5869
20625SOL     OW63315   6.904   6.615   0.437  0.9008  0.5440 -0.1306
20625SOL    HW163316   6.863   6.554   0.375  1.0980 -1.0961  1.2586
20625SOL    HW263317   6.864   6.700   0.418  0.3054 -0.0918 -1.8798
20626SOL     OW63318   5.598   7.488  12.118 -0.4719 -0.1200  0.8923
20626SOL    HW163319   5.527   7.431  12.149 -1.8014  1.4273  0.8320
20626SOL    HW263320   5.615   7.547  12.191 -0.4434  0.6036  0.3103
20627SOL     OW63321   7.902   5.812  10.237 -0.2483  0.3790 -0.1941
20627SOL    HW163322   7.931   5.813  10.146 -1.8222  2.9414 -0.7698
20627SOL    HW263323   7.939   5.732  10.273  1.0851 -0.3164 -2.8574
20628SOL     OW63324   2.475   3.167   0.113 -0.0449  0.0025  0.1089
20628SOL    HW163325   2.481   3.100   0.181 -2.2829 -1.8844 -1.3796
20628SOL    HW263326   2.537   3.138   0.046  0.2386  0.3889  0.2035
20629SOL     OW63327   1.696   0.805   8.590 -0.1956 -0.4719 -0.5801
20629SOL    HW163328   1.672   0.894   8.565 -1.4069  0.1386  2.3649
20629SOL    HW263329   1.791   0.802   8.580 -0.1635  1.0558 -1.0098
20630SOL     OW63330   2.944   2.943   9.740 -0.0639  1.0953 -0.1139
20630SOL    HW163331   2.997   2.868   9.767 -0.2345  1.6420  1.9024
20630SOL    HW263332   2.855   2.921   9.769 -0.1192  2.0551  0.4692
20631SOL     OW63333   3.960   6.578  11.447  0.0723  0.6235 -0.1482
20631SOL    HW163334   4.018   6.650  11.473 -0.9362  1.8211 -1.0715
20631SOL    HW263335   4.018   6.504  11.432  1.0127  0.7552  2.3483
20632SOL     OW63336   0.210   2.635   4.367 -0.5449  0.0330 -0.4167
20632SOL    HW163337   0.228   2.566   4.302 -1.9409  0.8387 -1.7333
20632SOL    HW263338   0.163   2.591   4.437 -0.2738 -0.5966 -0.6259
20633SOL     OW63339   5.673   5.869   2.498  0.1403  0.0303  0.3769
20633SOL    HW163340   5.666   5.820   2.416 -0.1227 -1.8113  1.4267
20633SOL    HW263341   5.718   5.950   2.474 -2.0791  0.6960 -1.9989
20634SOL     OW63342   0.618   1.346   4.131 -0.1080 -1.2908  0.0635
20634SOL    HW163343   0.703   1.384   4.112 -0.6504  0.4858  0.9489
20634SOL    HW263344   0.607   1.277   4.065  1.1249 -0.2179 -1.3323
20635SOL     OW63345   2.204   7.127   8.663  0.3654  0.0281  0.3508
20635SOL    HW163346   2.152   7.205   8.679  0.0157  0.5205 -2.6317
20635SOL    HW263347   2.261   7.151   8.590 -1.2102 -3.0584 -2.1230
20636SOL     OW63348   3.373   4.053   2.244  0.0053 -0.1709  0.3419
20636SOL    HW163349   3.339   3.964   2.250  0.1046 -0.2645 -0.3975
20636SOL    HW263350   3.301   4.109   2.273  0.0156 -0.5058  1.0141
20637SOL     OW63351   4.931   4.581  12.126  0.3410 -0.0096 -0.8068
20637SOL    HW163352   5.017   4.622  12.129  0.4027 -0.2112  0.8783
20637SOL    HW263353   4.925   4.530  12.207 -0.8968 -0.9628 -1.4543
20638SOL     OW63354   5.237   2.389  10.799 -0.6093 -0.6707 -0.3213
20638SOL    HW163355   5.330   2.391  10.823 -0.0876 -0.6927 -2.2125
20638SOL    HW263356   5.191   2.417  10.878  0.8026 -3.0594  1.4757
20639SOL     OW63357   4.533   1.662  10.019  0.1403  0.5990  0.3387
20639SOL    HW163358   4.513   1.746   9.977  0.5554  0.0191 -1.0816
20639SOL    HW263359   4.611   1.630   9.973 -0.0019 -0.5545  0.8636
20640SOL     OW63360   7.288   6.103   6.927 -0.1442 -0.1588 -0.0193
20640SOL    HW163361   7.294   6.146   7.012 -0.8595 -0.1147  0.0098
20640SOL    HW263362   7.335   6.161   6.867  0.2339 -0.1167  0.3154
20641SOL     OW63363   0.887   4.461   3.692  0.5003 -0.2194  0.2659
20641SOL    HW163364   0.943   4.476   3.616 -0.6795  0.6462 -0.4746
20641SOL    HW263365   0.928   4.509   3.763  1.3419 -0.6155  0.0623
20642SOL     OW63366   5.027   3.428   0.795 -0.1486  0.4656 -0.0264
20642SOL    HW163367   4.987   3.419   0.709 -1.1704 -0.3772  0.5221
20642SOL    HW263368   4.975   3.496   0.839 -0.9509 -0.5673  0.6566
20643SOL     OW63369   7.079   4.184   5.761 -0.8547  0.3246 -0.0591
20643SOL    HW163370   7.068   4.226   5.845 -2.2969  0.7372 -0.4357
20643SOL    HW263371   7.018   4.228   5.702 -0.1853 -0.2267 -1.2287
20644SOL     OW63372   5.310   5.317   6.752  0.3070  0.0094  0.0320
20644SOL    HW163373   5.294   5.372   6.675  0.1803 -0.0727 -0.0003
20644SOL    HW263374   5.223   5.298   6.787  0.4048  0.9736  0.8523
20645SOL     OW63375   0.163   1.609  11.990 -0.0306 -0.3939 -0.2516
20645SOL    HW163376   0.257   1.601  12.004 -0.3041 -1.1991  1.3587
20645SOL    HW263377   0.130   1.652  12.069 -1.0489 -0.3683 -0.6689
20646SOL     OW63378   4.621   3.934   9.663  0.2133  0.2074 -0.7738
20646SOL    HW163379   4.599   3.998   9.596  0.9408  1.0146 -0.2625
20646SOL    HW263380   4.699   3.969   9.706  1.4110 -1.6590 -1.3227
20647SOL     OW63381   6.547   3.224   9.152  0.4616 -0.3757  0.3277
20647SOL    HW163382   6.458   3.196   9.131  0.4182 -1.0597  1.3511
20647SOL    HW263383   6.572   3.170   9.227  1.1212  0.9770  1.1227
20648SOL     OW63384   3.480   5.097   5.341  0.3389 -0.1114 -0.0822
20648SOL    HW163385   3.389   5.126   5.333  0.6617  0.9654 -0.1063
20648SOL    HW263386   3.498   5.051   5.260  0.5087  1.7723 -1.1845
20649SOL     OW63387   5.828   3.989  10.880 -0.4424 -0.2566  0.0889
20649SOL    HW163388   5.757   3.981  10.944 -0.6467 -1.9544 -0.3116
20649SOL    HW263389   5.899   4.030  10.930 -1.5797  1.2613  0.5546
20650SOL     OW63390   1.164   7.465   7.710 -0.2034  0.0821 -0.7646
20650SOL    HW163391   1.085   7.484   7.761 -0.3794  1.9187 -1.6206
20650SOL    HW263392   1.185   7.548   7.667  1.8020 -0.5593 -1.1208
20651SOL     OW63393   1.123   1.780  11.410  0.3986  0.3818  0.5243
20651SOL    HW163394   1.046   1.834  11.424 -0.1712  0.5981 -2.6988
20651SOL    HW263395   1.193   1.843  11.391  0.1181  0.1641 -1.5440
20652SOL     OW63396   0.591   7.728   2.694 -0.2620  0.1760 -0.5497
20652SOL    HW163397   0.500   7.700   2.681  0.0735 -1.1952 -0.1684
20652SOL    HW263398   0.607   7.714   2.787  0.6295 -0.5309 -0.7952
20653SOL     OW63399   6.164   5.164   1.308  0.8165  0.4436 -0.0942
20653SOL    HW163400   6.101   5.144   1.377  1.6434  0.4600  0.6836
20653SOL    HW263401   6.218   5.084   1.301  0.3632  0.2196 -1.1412
20654SOL     OW63402   7.545   3.352  10.404 -0.0326 -0.3843 -0.1864
20654SOL    HW163403   7.494   3.274  10.382 -1.1677 -0.1154  1.2936
20654SOL    HW263404   7.480   3.422  10.410  0.9125  0.6035 -1.0651
20655SOL     OW63405   4.986   0.259   7.914 -0.1314  0.2669 -0.6194
20655SOL    HW163406   4.932   0.308   7.977  0.2204  0.1567 -0.2328
20655SOL    HW263407   4.926   0.196   7.874 -0.4542  0.6255 -0.7050
20656SOL     OW63408   0.392   2.927   3.275 -0.1847  0.3209  0.2777
20656SOL    HW163409   0.348   2.947   3.192  1.0594 -1.2730 -0.8282
20656SOL    HW263410   0.454   2.999   3.287  1.4194 -0.6699 -1.5438
20657SOL     OW63411   6.904   1.675   7.603 -0.3041  0.0051 -0.4185
20657SOL    HW163412   6.960   1.747   7.632 -2.3203  1.2097  0.7576
20657SOL    HW263413   6.874   1.634   7.685  0.4520 -1.9419 -1.0550
20658SOL     OW63414   7.007   4.956   3.478  0.0313 -0.4637 -0.0799
20658SOL    HW163415   6.930   5.009   3.500  1.2401  0.8429  1.3098
20658SOL    HW263416   7.030   4.983   3.390  0.4519  1.1848  0.4961
20659SOL     OW63417   7.427   6.527   1.301 -0.2214 -0.2734  0.0479
20659SOL    HW163418   7.485   6.512   1.226  0.3069  0.5730  0.2729
20659SOL    HW263419   7.345   6.556   1.261 -0.1703 -0.5178 -0.2363
20660SOL     OW63420   2.205   7.322   6.508  0.9157  0.1176  0.1430
20660SOL    HW163421   2.177   7.231   6.501  1.5669 -0.1152  0.4133
20660SOL    HW263422   2.184   7.361   6.424 -0.6043  0.0799  0.4770
20661SOL     OW63423   4.523   2.463   5.877  0.1811  0.1299 -0.4540
20661SOL    HW163424   4.456   2.397   5.893  0.4422 -0.0594 -0.1356
20661SOL    HW263425   4.592   2.444   5.941 -0.7364  2.1486  1.2291
20662SOL     OW63426   1.104   3.659   5.967 -0.0422  0.0002 -0.7077
20662SOL    HW163427   1.156   3.603   6.023  0.1447 -0.1240 -1.0028
20662SOL    HW263428   1.069   3.727   6.025 -1.5699 -1.3059 -0.0374
20663SOL     OW63429   4.513   5.759   1.365  0.2315  0.1965 -0.5382
20663SOL    HW163430   4.537   5.825   1.300  2.3162  0.5799  0.5258
20663SOL    HW263431   4.587   5.698   1.366 -0.4988 -0.7201  0.3241
20664SOL     OW63432   6.951   3.494   8.781 -0.4115  0.4550  0.2797
20664SOL    HW163433   6.880   3.432   8.764 -0.1391  0.0351  0.6214
20664SOL    HW263434   6.961   3.493   8.877 -1.1360  1.8652  0.3881
20665SOL     OW63435   1.827   0.586   2.134  0.3480  0.0897 -0.0892
20665SOL    HW163436   1.806   0.507   2.183 -0.9806  0.3005 -0.2900
20665SOL    HW263437   1.750   0.602   2.080 -0.2385  2.5717  1.3269
20666SOL     OW63438   4.010   6.224   3.858 -0.4040 -0.3847  0.5391
20666SOL    HW163439   3.918   6.240   3.879 -0.0615  1.4321  0.8598
20666SOL    HW263440   4.035   6.299   3.803  0.5608 -1.4956 -0.5972
20667SOL     OW63441   7.239   2.495  11.656 -0.2411 -0.7281 -0.2006
20667SOL    HW163442   7.253   2.554  11.729  0.8166 -1.7492  0.4619
20667SOL    HW263443   7.306   2.518  11.592  0.5182 -1.5043  0.2820
20668SOL     OW63444   0.396   0.517   4.420 -0.0604 -0.2447  0.2863
20668SOL    HW163445   0.454   0.583   4.458  0.3451 -0.8247  0.7034
20668SOL    HW263446   0.437   0.494   4.336  1.3184 -1.8934  1.3261
20669SOL     OW63447   3.665   4.575   4.120 -0.2541  0.3953 -0.2390
20669SOL    HW163448   3.644   4.650   4.063 -0.1379 -0.3574 -1.3033
20669SOL    HW263449   3.581   4.552   4.161 -0.1594  1.5191  0.6319
20670SOL     OW63450   1.428   0.585   6.717  0.4529 -0.0725 -0.0915
20670SOL    HW163451   1.356   0.524   6.705  0.7887 -0.5137  0.1297
20670SOL    HW263452   1.453   0.611   6.629 -1.0123  1.3221 -0.1545
20671SOL     OW63453   5.224   3.623   7.789  0.5988 -0.0900  0.4218
20671SOL    HW163454   5.185   3.559   7.731  0.6285  0.7579 -0.5648
20671SOL    HW263455   5.307   3.584   7.815  1.1582  0.0229 -1.0973
20672SOL     OW63456   1.678   0.926  10.057  0.2679  0.0387  1.0583
20672SOL    HW163457   1.597   0.976  10.056  1.0142  1.3205  2.1126
20672SOL    HW263458   1.735   0.972  10.118  2.2223 -0.1507 -0.4941
20673SOL     OW63459   1.433   6.875   2.204  0.0493  0.4193  0.2884
20673SOL    HW163460   1.375   6.951   2.196  0.8526  1.0270  0.1808
20673SOL    HW263461   1.510   6.908   2.250  0.7446 -0.1513 -0.4551
20674SOL     OW63462   6.265   6.880   2.498 -0.6932 -0.3643 -0.7297
20674SOL    HW163463   6.246   6.966   2.461 -0.9903  0.1405  0.5430
20674SOL    HW263464   6.359   6.879   2.512 -0.8996  0.5247  1.0046
20675SOL     OW63465   0.292   0.177   7.305  0.2550 -0.3063 -0.7221
20675SOL    HW163466   0.213   0.130   7.280 -0.1272 -0.2740  0.3955
20675SOL    HW263467   0.345   0.113   7.353 -0.9561  0.7196  2.1880
20676SOL     OW63468   6.485   2.392   5.072 -0.3774  0.2244  0.3738
20676SOL    HW163469   6.414   2.333   5.048  1.1759 -0.9785 -1.6851
20676SOL    HW263470   6.504   2.372   5.163 -1.8566 -0.2912  0.5851
20677SOL     OW63471   4.833   5.947   8.694 -0.3717  0.0675  0.6291
20677SOL    HW163472   4.863   5.861   8.662  1.2002  1.0464 -0.6860
20677SOL    HW263473   4.755   5.927   8.745 -2.2905 -1.8322 -2.6596
20678SOL     OW63474   3.297   1.663   9.497 -0.0215  1.4607  0.3636
20678SOL    HW163475   3.262   1.596   9.557 -0.0450 -1.9593 -3.0906
20678SOL    HW263476   3.389   1.671   9.521  0.1519 -0.3947  0.4971
20679SOL     OW63477   0.270   2.250   3.008 -0.0705 -0.0744  0.5946
20679SOL    HW163478   0.326   2.323   2.985 -1.2305  0.7203  0.1763
20679SOL    HW263479   0.191   2.263   2.955  0.5119 -2.8105 -1.1545
20680SOL     OW63480   2.475   1.873   7.985  0.4024  0.4648 -0.2978
20680SOL    HW163481   2.391   1.917   7.998  0.6371  0.7837  0.1469
20680SOL    HW263482   2.456   1.803   7.922 -0.1430  0.6900 -0.3847
20681SOL     OW63483   2.018   1.464   8.771 -0.0874  0.3589 -0.0454
20681SOL    HW163484   2.093   1.513   8.803 -0.8018  2.5111 -1.4517
20681SOL    HW263485   2.043   1.436   8.683 -0.6344  0.4374 -0.2337
20682SOL     OW63486   0.973   2.105   0.121 -0.1558  0.1095 -0.3115
20682SOL    HW163487   1.046   2.145   0.169 -1.3493  1.2731  0.6368
20682SOL    HW263488   0.999   2.110   0.029  0.9589  0.4712  0.0014
20683SOL     OW63489   4.855   1.533   8.017  0.0338  0.3974  0.2703
20683SOL    HW163490   4.944   1.506   8.041 -0.3249  0.5583  1.8618
20683SOL    HW263491   4.826   1.467   7.954  1.1720  0.1945 -0.0658
20684SOL     OW63492   0.718   0.440  10.183  0.1422  0.6782 -1.0597
20684SOL    HW163493   0.791   0.481  10.137  0.0310  0.2347 -1.6550
20684SOL    HW263494   0.654   0.510  10.194  0.8187  1.1642 -0.1701
20685SOL     OW63495   3.692   7.174   6.339  0.0725  0.7680 -0.3157
20685SOL    HW163496   3.618   7.114   6.327  0.1096  0.8173 -0.7839
20685SOL    HW263497   3.751   7.154   6.267  0.3195  1.0268 -0.1859
20686SOL     OW63498   6.068   2.642   9.378 -0.2664 -0.6407  0.7732
20686SOL    HW163499   6.031   2.728   9.396  1.0546 -0.0692  0.8207
20686SOL    HW263500   6.002   2.581   9.411 -1.7627  0.3028 -0.3300
20687SOL     OW63501   5.779   4.005   0.264  0.0878 -0.2170  0.2878
20687SOL    HW163502   5.778   3.914   0.235 -0.5340 -0.1423  0.0699
20687SOL    HW263503   5.796   4.001   0.358 -0.5327 -0.5883  0.3865
20688SOL     OW63504   6.703   4.729   9.089  0.6630  0.0159  0.6965
20688SOL    HW163505   6.639   4.778   9.141 -2.2422 -0.3760 -2.1602
20688SOL    HW263506   6.689   4.638   9.114 -0.6963 -0.1670 -0.5849
20689SOL     OW63507   1.790   0.836   0.830  0.3112 -0.1039  0.3080
20689SOL    HW163508   1.783   0.744   0.802  0.6002 -0.0600  0.0861
20689SOL    HW263509   1.803   0.831   0.924  1.5260 -0.3435  0.1450
20690SOL     OW63510   3.175   2.122   7.267  0.2732  0.5929  0.0582
20690SOL    HW163511   3.086   2.091   7.246 -0.0303  1.4602  0.0447
20690SOL    HW263512   3.189   2.196   7.209  1.2608  0.0862 -0.3829
20691SOL     OW63513   5.063   2.087   9.197 -0.0046  0.8474 -0.4173
20691SOL    HW163514   5.032   2.176   9.216  0.2379  0.8950 -0.2338
20691SOL    HW263515   4.983   2.036   9.185 -0.2084  0.6815  1.3481
20692SOL     OW63516   3.598   5.915   7.049  0.1355 -0.0487  0.1201
20692SOL    HW163517   3.655   5.986   7.078 -0.8238  0.5244  0.6699
20692SOL    HW263518   3.591   5.858   7.126 -0.5356  0.2288  0.2730
20693SOL     OW63519   0.507   7.314   2.199  0.0629 -0.2791  0.4362
20693SOL    HW163520   0.454   7.351   2.129 -1.4599 -0.0377  1.6615
20693SOL    HW263521   0.557   7.244   2.157 -1.1538 -0.4434 -0.7959
20694SOL     OW63522   0.810   6.270   9.666 -0.2288  0.0640  0.1670
20694SOL    HW163523   0.829   6.178   9.648  0.8080  0.3442 -0.2675
20694SOL    HW263524   0.878   6.298   9.727 -0.5376  0.5458  0.3000
20695SOL     OW63525   1.097   3.643   2.771 -0.3507  0.0770 -0.1943
20695SOL    HW163526   1.177   3.643   2.719 -0.8732  1.1779 -1.0566
20695SOL    HW263527   1.086   3.735   2.797 -0.5666 -0.3125  1.1397
20696SOL     OW63528   0.560   3.521   7.508  0.0209 -0.3373  0.1626
20696SOL    HW163529   0.635   3.526   7.448 -1.1618  1.0471 -1.3100
20696SOL    HW263530   0.498   3.464   7.463 -0.2970 -0.5067  0.8069
20697SOL     OW63531   5.167   4.552   9.161 -0.1822  0.3174  0.1343
20697SOL    HW163532   5.179   4.572   9.068 -0.3057  1.6984  0.3916
20697SOL    HW263533   5.251   4.575   9.201  0.0103 -0.6610  0.3210
20698SOL     OW63534   2.279   4.441   9.340  0.2671 -0.7002 -0.2286
20698SOL    HW163535   2.286   4.508   9.409 -1.3923 -0.2983 -0.3951
20698SOL    HW263536   2.364   4.398   9.339  0.9188  0.5003  0.8337
20699SOL     OW63537   5.695   5.579   4.447 -0.0033  0.1268 -0.0108
20699SOL    HW163538   5.706   5.518   4.520 -0.6492 -1.2376 -1.0136
20699SOL    HW263539   5.767   5.557   4.387 -0.5124  0.0332 -0.5916
20700SOL     OW63540   0.426   4.613  10.325 -0.0687  0.2495  0.3421
20700SOL    HW163541   0.454   4.584  10.412 -0.2947 -0.8100  0.0701
20700SOL    HW263542   0.332   4.591  10.322  0.1362 -0.5618 -0.4979
20701SOL     OW63543   1.425   3.993  12.138  0.0599 -0.5115  0.1304
20701SOL    HW163544   1.403   3.901  12.125 -0.0611 -0.2998 -1.4571
20701SOL    HW263545   1.448   4.000  12.230 -2.6110 -1.5731  0.9817
20702SOL     OW63546   4.626   2.867   7.494  0.3452 -0.5194  0.6197
20702SOL    HW163547   4.645   2.784   7.450  2.7317 -0.5627  1.5974
20702SOL    HW263548   4.701   2.882   7.551 -0.4628  1.8680  1.1750
20703SOL     OW63549   6.798   7.551   4.413 -0.3480  0.0176  0.4138
20703SOL    HW163550   6.861   7.621   4.397  0.3081 -0.9266 -1.3965
20703SOL    HW263551   6.840   7.497   4.480 -0.2755  0.6022  0.8548
20704SOL     OW63552   3.066   0.308  11.197  0.1606  0.2186 -0.2007
20704SOL    HW163553   3.067   0.219  11.161 -0.0601  0.5079 -0.9396
20704SOL    HW263554   3.101   0.363  11.126  0.1538  0.7411  0.1963
20705SOL     OW63555   7.885   4.743   4.150  0.0248  0.0720  0.2384
20705SOL    HW163556   7.895   4.838   4.144 -0.5235  0.1118 -0.0819
20705SOL    HW263557   7.845   4.729   4.236  1.7282 -0.0104  1.0573
20706SOL     OW63558   0.745   5.534   8.664  0.8200 -0.0902  0.3162
20706SOL    HW163559   0.749   5.623   8.630 -0.0938  0.2840  1.1442
20706SOL    HW263560   0.670   5.534   8.724  0.5818 -1.5127  0.0613
20707SOL     OW63561   1.095   1.195   3.601 -0.5678  0.0183 -0.1441
20707SOL    HW163562   1.147   1.192   3.682  0.0321  0.3952 -0.5069
20707SOL    HW263563   1.113   1.112   3.558  0.4484  0.5021 -0.6919
20708SOL     OW63564   7.078   7.129   3.254  0.5968  0.2735 -0.4923
20708SOL    HW163565   7.035   7.157   3.335  0.6768  1.8118 -0.9489
20708SOL    HW263566   7.007   7.124   3.190 -0.1174 -4.1817  0.2795
20709SOL     OW63567   5.645   6.661   4.413  0.4197 -0.1815 -0.0544
20709SOL    HW163568   5.570   6.647   4.471 -1.4042  0.2064 -2.1904
20709SOL    HW263569   5.630   6.747   4.374  1.9120 -0.1612 -0.6599
20710SOL     OW63570   3.467   0.889   0.588  0.3631  0.1005 -0.0962
20710SOL    HW163571   3.451   0.874   0.495  2.0391  2.9556 -0.9587
20710SOL    HW263572   3.558   0.864   0.601 -0.2524 -1.7238  1.2334
20711SOL     OW63573   3.194   2.279  12.227 -0.2379 -0.4792 -0.3165
20711SOL    HW163574   3.247   2.244  12.298  0.6365  0.5730 -0.4182
20711SOL    HW263575   3.177   2.370  12.252 -1.2382 -0.5376 -0.7220
20712SOL     OW63576   3.350   0.079   3.295  0.1374  0.4130  0.5464
20712SOL    HW163577   3.368  -0.007   3.333  1.3288 -0.1247 -1.1435
20712SOL    HW263578   3.383   0.074   3.205  0.8447  2.8370  0.5813
20713SOL     OW63579   6.825   7.620   0.702  0.3696 -0.2144  0.1193
20713SOL    HW163580   6.886   7.552   0.672 -1.7943 -2.2840  0.1419
20713SOL    HW263581   6.875   7.701   0.697  2.0351 -1.2910 -3.2159
20714SOL     OW63582   1.425   3.834   7.574  0.0726 -0.4774 -0.1074
20714SOL    HW163583   1.490   3.862   7.639 -1.6279  1.2728  0.9813
20714SOL    HW263584   1.397   3.748   7.604 -0.3887  0.1250  1.3103
20715SOL     OW63585   0.508   3.930   2.021 -0.0704  0.8274  0.0117
20715SOL    HW163586   0.531   4.021   2.001 -0.0607  0.8428  0.0942
20715SOL    HW263587   0.501   3.927   2.116  0.4662  0.6191  0.0470
20716SOL     OW63588   4.343   3.154   8.268  0.0209  0.2798 -0.4439
20716SOL    HW163589   4.248   3.170   8.269  0.2746  2.0142 -0.9990
20716SOL    HW263590   4.368   3.156   8.361 -0.1847  2.1207 -0.3747
20717SOL     OW63591   2.773   1.529   7.760 -0.0945 -1.1766  0.2815
20717SOL    HW163592   2.797   1.569   7.676  1.8719 -1.0416  0.8470
20717SOL    HW263593   2.726   1.450   7.736 -0.4077 -0.6522 -0.9341
20718SOL     OW63594   1.563   7.244   1.944 -0.8352  0.4575 -0.0184
20718SOL    HW163595   1.641   7.263   1.995 -0.5509 -0.5235 -0.0556
20718SOL    HW263596   1.587   7.267   1.854  0.4837 -2.4355 -0.5424
20719SOL     OW63597   7.662   2.973   6.818  0.4657  0.0183 -0.2189
20719SOL    HW163598   7.569   2.990   6.803  0.0741 -1.3929  0.3815
20719SOL    HW263599   7.706   3.007   6.740 -0.6103  0.2603 -0.7333
20720SOL     OW63600   5.951   5.277   0.338  0.0625  0.0736  0.1168
20720SOL    HW163601   5.985   5.344   0.278  1.7852 -0.3557  0.5438
20720SOL    HW263602   5.971   5.312   0.425  0.0381 -0.5287  0.3624
20721SOL     OW63603   6.224   4.473   4.498  0.5544  0.2850 -0.2450
20721SOL    HW163604   6.176   4.524   4.433  1.5962 -0.1368 -1.3838
20721SOL    HW263605   6.220   4.526   4.578  0.8729  1.7551 -1.1610
20722SOL     OW63606   0.690   1.391   5.373 -0.1360  0.4676 -0.0026
20722SOL    HW163607   0.613   1.358   5.418  0.6870  3.0624  3.8570
20722SOL    HW263608   0.750   1.316   5.371 -1.4190 -0.6108  0.3100
20723SOL     OW63609   6.812   2.001   5.025 -0.3376 -0.3314  0.2198
20723SOL    HW163610   6.774   1.966   5.105  1.0909 -1.2777  0.5138
20723SOL    HW263611   6.737   2.036   4.976 -1.6505 -2.4642  0.5991
20724SOL     OW63612   5.988   0.800   6.625 -0.1965 -0.0691  0.2182
20724SOL    HW163613   5.939   0.718   6.621  2.0910 -1.5003 -0.4686
20724SOL    HW263614   5.970   0.835   6.713 -0.2239 -1.9597  1.0074
20725SOL     OW63615   5.706   2.441   3.739  0.2487  0.1097 -0.1215
20725SOL    HW163616   5.620   2.447   3.696 -0.4893 -0.9516  1.1084
20725SOL    HW263617   5.769   2.459   3.670 -0.9159 -0.8131 -1.4810
20726SOL     OW63618   1.969   1.526  11.212  0.2813 -0.1375  0.3799
20726SOL    HW163619   1.951   1.453  11.153  1.1173 -0.0334 -0.0113
20726SOL    HW263620   1.888   1.536  11.263 -0.2627 -0.5575 -0.3844
20727SOL     OW63621   5.048   1.806   9.876  0.3243 -0.2731  0.1402
20727SOL    HW163622   5.039   1.722   9.921 -0.5774 -0.7691 -0.9195
20727SOL    HW263623   5.023   1.787   9.786 -1.0873  1.3875  0.1418
20728SOL     OW63624   6.797   2.160   3.131  0.0289 -0.0351  0.6376
20728SOL    HW163625   6.733   2.231   3.142  0.9500  1.0948 -0.9074
20728SOL    HW263626   6.865   2.198   3.076  1.9348 -1.2793  2.0040
20729SOL     OW63627   5.436   0.979   9.411  0.2243  0.0820  0.1263
20729SOL    HW163628   5.465   1.048   9.352  0.4033 -0.1243 -0.0275
20729SOL    HW263629   5.489   0.989   9.490  2.3673 -1.6859 -0.9836
20730SOL     OW63630   7.232   2.299  10.873 -0.6565 -0.1577 -0.6094
20730SOL    HW163631   7.220   2.243  10.796 -2.5046  0.7135 -1.0089
20730SOL    HW263632   7.273   2.379  10.839 -1.3113  0.1569 -0.6709
20731SOL     OW63633   0.455   6.151  11.978 -0.1514  0.4205 -0.6281
20731SOL    HW163634   0.434   6.061  11.951 -0.3099 -0.2558  1.5659
20731SOL    HW263635   0.469   6.198  11.896  0.8011 -1.8111 -1.8164
20732SOL     OW63636   6.716   7.164   1.591 -0.6474  0.0093  0.2978
20732SOL    HW163637   6.759   7.234   1.641 -1.0594  0.8251 -0.4589
20732SOL    HW263638   6.734   7.085   1.640 -0.6031  0.7190  1.4657
20733SOL     OW63639   3.097   4.429  10.812 -0.0318  0.1275 -0.1661
20733SOL    HW163640   3.138   4.347  10.837 -1.4685 -0.3837  0.6301
20733SOL    HW263641   3.124   4.491  10.880  1.0819  0.3474 -0.7875
20734SOL     OW63642   5.989   3.537   2.046  0.7601  0.3462  0.0964
20734SOL    HW163643   6.026   3.482   1.977 -0.6057  0.2304 -0.5629
20734SOL    HW263644   6.059   3.600   2.066  1.5820 -0.3310 -0.5826
20735SOL     OW63645   0.392   5.951   2.031 -0.2117  0.1469 -0.4837
20735SOL    HW163646   0.457   6.008   1.989  0.9049 -1.3010 -0.7648
20735SOL    HW263647   0.438   5.912   2.105 -0.6021 -1.2507 -0.9453
20736SOL     OW63648   0.642   5.278   5.459  0.2464 -0.1166  0.1525
20736SOL    HW163649   0.635   5.231   5.543  0.7241  0.1845  0.3618
20736SOL    HW263650   0.689   5.358   5.480 -0.9235  0.6675 -0.1222
20737SOL     OW63651   6.222   4.353   5.945  0.0413 -0.0240  0.2249
20737SOL    HW163652   6.137   4.376   5.982  0.1620 -0.8787  1.0728
20737SOL    HW263653   6.206   4.274   5.894  0.2027  0.1773 -0.1393
20738SOL     OW63654   0.235   3.210   0.134 -0.8940 -0.3076 -0.4404
20738SOL    HW163655   0.245   3.251   0.219 -0.6692 -0.4011 -0.4201
20738SOL    HW263656   0.246   3.116   0.151  1.0746 -0.1890 -0.8525
20739SOL     OW63657   1.226   2.633   4.028 -0.3655 -0.0293 -0.1455
20739SOL    HW163658   1.288   2.563   4.046  0.4595  0.3670 -1.3201
20739SOL    HW263659   1.274   2.694   3.972 -1.6259  0.5873 -0.5987
20740SOL     OW63660   2.101   6.653   7.418 -0.2402 -0.9098  0.3052
20740SOL    HW163661   2.131   6.722   7.477  0.0377 -0.0698 -0.7883
20740SOL    HW263662   2.174   6.590   7.417 -0.0045 -0.6416  0.4044
20741SOL     OW63663   5.934   5.199   1.873 -0.1783 -0.3837  0.9960
20741SOL    HW163664   5.936   5.137   1.946  1.5321 -1.2507  0.2682
20741SOL    HW263665   5.879   5.157   1.807 -0.3819 -0.3499  1.1425
20742SOL     OW63666   1.214   4.434  11.947  0.1523 -0.3051  0.2182
20742SOL    HW163667   1.235   4.367  12.012  0.9010  1.4873  1.9308
20742SOL    HW263668   1.217   4.517  11.995 -2.9284  0.8588 -1.2863
20743SOL     OW63669   5.014   6.231   0.934 -0.2497  0.6038  0.0800
20743SOL    HW163670   5.089   6.262   0.883 -0.9720  1.0011 -0.7742
20743SOL    HW263671   4.969   6.311   0.960 -0.3929  0.3662  0.5618
20744SOL     OW63672   2.180   2.936   5.626 -0.2360 -0.0708 -0.0422
20744SOL    HW163673   2.168   2.969   5.537 -1.5421 -0.5321 -0.0572
20744SOL    HW263674   2.239   2.861   5.616 -2.0011 -1.4153 -0.8393
20745SOL     OW63675   3.780   3.779   7.195 -0.4988 -0.6504 -0.3072
20745SOL    HW163676   3.775   3.872   7.218 -0.6294 -1.2021  2.0645
20745SOL    HW263677   3.867   3.769   7.155  0.1100  0.2190  0.7540
20746SOL     OW63678   5.345   2.638   7.282 -0.2707  0.0872  0.6002
20746SOL    HW163679   5.409   2.618   7.214  0.0349 -1.7676  1.3592
20746SOL    HW263680   5.393   2.628   7.364 -1.0029  0.8100  1.1339
20747SOL     OW63681   5.322   1.981   9.748 -0.4031 -0.0778  0.3093
20747SOL    HW163682   5.313   2.066   9.705  2.2931  0.6505  0.9799
20747SOL    HW263683   5.265   1.923   9.698 -2.1264  2.0374 -0.3418
20748SOL     OW63684   6.725   5.193   7.649 -0.0442  0.2571 -0.0143
20748SOL    HW163685   6.753   5.228   7.733 -1.1827  1.4911 -0.1190
20748SOL    HW263686   6.749   5.100   7.652  2.3849  0.8415  0.5799
20749SOL     OW63687   4.203   6.465   3.795 -0.4700 -0.3576 -0.2007
20749SOL    HW163688   4.164   6.551   3.808  0.4327  0.0610 -0.1865
20749SOL    HW263689   4.242   6.469   3.707 -1.5039 -1.1906 -0.7294
20750SOL     OW63690   6.349   0.938  10.115 -0.2169 -0.0347  0.0721
20750SOL    HW163691   6.405   1.015  10.125  0.5604 -0.5905  0.0839
20750SOL    HW263692   6.354   0.918  10.022 -0.7499  0.1740 -0.0015
20751SOL     OW63693   6.549   0.167   7.514 -0.0339 -0.5877  0.0245
20751SOL    HW163694   6.631   0.166   7.563 -0.6446  2.5275  1.3132
20751SOL    HW263695   6.575   0.187   7.424  0.6571  1.0318  0.5448
20752SOL     OW63696   1.540   3.696   0.525  0.0798  0.5307 -0.3206
20752SOL    HW163697   1.477   3.729   0.461 -0.4706 -0.7322 -0.4793
20752SOL    HW263698   1.620   3.680   0.475 -0.2525 -0.1611 -0.6504
20753SOL     OW63699   2.168   4.308   1.533 -0.0712 -0.1756  0.6157
20753SOL    HW163700   2.221   4.284   1.609 -0.9563  0.3580  1.4195
20753SOL    HW263701   2.101   4.240   1.528 -0.2258 -0.0195  0.5356
20754SOL     OW63702   5.352   6.948   6.965 -0.7261  0.2023 -0.1463
20754SOL    HW163703   5.263   6.924   6.939 -0.9997  1.1247 -0.1249
20754SOL    HW263704   5.373   7.024   6.910 -0.3582  0.6350  0.5710
20755SOL     OW63705   6.466   7.465  10.816 -0.1318  0.8174  0.4881
20755SOL    HW163706   6.469   7.492  10.908 -0.4957 -0.9156  1.0341
20755SOL    HW263707   6.532   7.396  10.809 -1.8246 -0.8416  0.1049
20756SOL     OW63708   1.395   5.812   3.310 -0.0480  0.0355 -0.2176
20756SOL    HW163709   1.370   5.861   3.388 -1.0749  1.5693 -1.4512
20756SOL    HW263710   1.370   5.721   3.329 -1.4541  0.5953  0.7590
20757SOL     OW63711   6.323   3.573   3.425  0.3401 -0.1643 -0.3537
20757SOL    HW163712   6.263   3.574   3.500 -0.2458  0.5094 -0.8151
20757SOL    HW263713   6.378   3.496   3.439 -0.6491 -0.8088  0.0765
20758SOL     OW63714   5.007   2.808   5.838 -0.4321 -0.0042 -0.3175
20758SOL    HW163715   4.952   2.793   5.761 -0.2676 -0.5883 -0.3235
20758SOL    HW263716   4.983   2.738   5.899 -0.9060  0.7269  0.3619
20759SOL     OW63717   6.955   4.828   7.124 -0.1092  0.4754  0.4151
20759SOL    HW163718   6.909   4.857   7.203  0.5249  1.5156  0.4227
20759SOL    HW263719   7.039   4.796   7.155 -0.7559 -1.3832  0.3929
20760SOL     OW63720   7.011   3.389   0.219 -0.3777  0.1410  0.5733
20760SOL    HW163721   7.054   3.304   0.212  1.2984  0.9474  0.6025
20760SOL    HW263722   7.082   3.451   0.235 -1.5418  1.5791  0.4144
20761SOL     OW63723   0.425   5.762   0.676 -0.2579  0.8769  0.0601
20761SOL    HW163724   0.462   5.775   0.763  0.3787  1.2296 -0.2595
20761SOL    HW263725   0.489   5.709   0.630 -2.3635 -2.8733  1.0277
20762SOL     OW63726   1.157   3.596   4.717 -0.3079 -0.4681  0.2195
20762SOL    HW163727   1.085   3.537   4.696 -0.7535 -0.2889  1.1464
20762SOL    HW263728   1.120   3.656   4.782  0.1903  0.7128 -0.5686
20763SOL     OW63729   6.777   4.627  10.536 -0.2003  0.3358  1.2385
20763SOL    HW163730   6.752   4.560  10.599 -2.9346  0.7688  0.7289
20763SOL    HW263731   6.738   4.708  10.569 -2.3820  0.4362 -1.2526
20764SOL     OW63732   6.137   3.958  11.731  0.1074 -0.2130 -0.0258
20764SOL    HW163733   6.153   4.001  11.647 -0.3768 -1.3094 -0.6896
20764SOL    HW263734   6.099   3.874  11.709  0.9536 -0.9686  1.2600
20765SOL     OW63735   4.094   2.133   0.942  0.0723  0.7907  0.4842
20765SOL    HW163736   4.105   2.060   0.881 -1.7233  0.7844  0.0997
20765SOL    HW263737   4.111   2.096   1.028  0.7647  0.3255  0.1553
20766SOL     OW63738   6.234   7.758   3.509  0.3689 -0.0988  0.5573
20766SOL    HW163739   6.318   7.745   3.467 -0.4468  0.1180 -1.2089
20766SOL    HW263740   6.251   7.820   3.580  1.8275 -0.7369  0.8012
20767SOL     OW63741   3.694   2.331   2.506 -0.4176 -0.1494 -0.3306
20767SOL    HW163742   3.668   2.355   2.595  2.4101  1.1953  0.2502
20767SOL    HW263743   3.647   2.393   2.450 -1.6199 -0.4940  0.2569
20768SOL     OW63744   3.394   2.374   2.055 -0.3634 -0.3472  0.3535
20768SOL    HW163745   3.463   2.312   2.079 -1.3308 -1.2800  0.7838
20768SOL    HW263746   3.317   2.319   2.038 -0.6178  0.5343 -1.6140
20769SOL     OW63747   5.251   3.082   2.433 -0.3695 -0.1616  0.2824
20769SOL    HW163748   5.239   2.995   2.395  0.6869 -0.5628  0.8524
20769SOL    HW263749   5.302   3.130   2.368  1.8928 -1.0105  1.3618
20770SOL     OW63750   4.249   4.180   1.126 -0.0615  0.1046 -0.2360
20770SOL    HW163751   4.312   4.114   1.156 -0.9372 -0.4977  0.3202
20770SOL    HW263752   4.224   4.227   1.206  1.3683  1.8745 -0.7692
20771SOL     OW63753   5.155   3.909   4.368  0.0614  0.1678 -0.8014
20771SOL    HW163754   5.156   3.838   4.304 -1.6511  0.0506 -0.7688
20771SOL    HW263755   5.086   3.968   4.336 -1.0602 -0.0545  1.0672
20772SOL     OW63756   1.405   3.152   7.582  0.4335 -0.2190 -0.5796
20772SOL    HW163757   1.487   3.135   7.535  1.3320  1.4229  0.2968
20772SOL    HW263758   1.422   3.123   7.672 -0.1375 -0.3184 -0.4984
20773SOL     OW63759   3.515   5.409  11.649  0.0083 -0.0105 -0.3063
20773SOL    HW163760   3.501   5.315  11.645 -0.2040 -0.2176  2.9735
20773SOL    HW263761   3.431   5.447  11.623 -0.4694 -0.7570  0.1462
20774SOL     OW63762   5.897   2.511   4.163  0.0033 -0.2164 -0.0766
20774SOL    HW163763   5.829   2.518   4.096  0.6740 -0.5066 -0.7990
20774SOL    HW263764   5.849   2.517   4.246 -1.1962 -2.7368 -0.4958
20775SOL     OW63765   6.413   1.319   5.760 -0.6937  0.3370 -0.2230
20775SOL    HW163766   6.482   1.320   5.826 -0.2551 -2.0212 -0.5687
20775SOL    HW263767   6.452   1.364   5.685  1.1821 -2.3205 -0.9891
20776SOL     OW63768   3.768   7.512   1.116  0.2790  0.7417 -0.0170
20776SOL    HW163769   3.734   7.513   1.027 -0.8118 -0.0076  0.3691
20776SOL    HW263770   3.715   7.447   1.162  1.3402  0.5399  0.9858
20777SOL     OW63771   4.662   0.865  10.815  0.0493  0.2074  0.1147
20777SOL    HW163772   4.735   0.807  10.834 -0.7990 -0.7645  0.4813
20777SOL    HW263773   4.693   0.952  10.841  1.0116 -0.2143  0.4063
20778SOL     OW63774   1.695   0.220   4.488  0.1684 -0.6000 -0.1724
20778SOL    HW163775   1.768   0.247   4.544 -0.4156  2.1446 -0.6304
20778SOL    HW263776   1.617   0.232   4.542 -0.2334  0.1244 -0.9014
20779SOL     OW63777   6.415   0.840   6.916  0.1624  0.1683  0.2987
20779SOL    HW163778   6.446   0.880   6.834  1.2225 -1.1612  0.0286
20779SOL    HW263779   6.404   0.747   6.895 -1.1886  0.0818  1.2207
20780SOL     OW63780   3.051   0.372   0.773 -0.5233  0.0238  0.1173
20780SOL    HW163781   3.040   0.286   0.811 -2.2121 -0.4709 -1.3604
20780SOL    HW263782   3.100   0.357   0.692 -0.3988  0.5069  0.0967
20781SOL     OW63783   1.854   0.878   7.645 -0.0699 -0.3120 -0.5480
20781SOL    HW163784   1.857   0.784   7.663  1.3107 -0.1683  0.0754
20781SOL    HW263785   1.797   0.914   7.714  1.1914 -0.4198  0.5785
20782SOL     OW63786   5.783   6.671   3.706  0.2568 -0.1480  0.0833
20782SOL    HW163787   5.741   6.736   3.649  2.0849  0.7060 -0.3564
20782SOL    HW263788   5.839   6.722   3.764  1.1256 -1.2779  0.2790
20783SOL     OW63789   0.451   6.502   3.031 -0.0346 -0.0983  0.3918
20783SOL    HW163790   0.370   6.463   3.064 -0.4627  0.5983  0.1615
20783SOL    HW263791   0.514   6.430   3.033 -0.7279 -0.7187  0.3126
20784SOL     OW63792   3.938   0.237   9.619 -0.7031  0.2297 -0.1502
20784SOL    HW163793   3.901   0.184   9.548  0.4608 -2.3733  1.0246
20784SOL    HW263794   3.863   0.261   9.673 -1.3148 -0.0253 -0.8688
20785SOL     OW63795   3.138   0.344  10.518 -0.2046 -0.0335 -0.4635
20785SOL    HW163796   3.069   0.293  10.559  0.5311 -1.5176 -1.0101
20785SOL    HW263797   3.191   0.376  10.591 -0.9173  0.3332 -0.0968
20786SOL     OW63798   4.330   1.698   5.002 -0.4646 -0.0762  0.5216
20786SOL    HW163799   4.339   1.641   4.926 -0.3344 -0.5404  0.8843
20786SOL    HW263800   4.411   1.687   5.050  0.1270  1.4035 -0.0641
20787SOL     OW63801   4.716   4.608   9.579  0.4094  0.7445  0.1800
20787SOL    HW163802   4.631   4.652   9.578 -0.6551 -1.2051 -0.6779
20787SOL    HW263803   4.732   4.584   9.487 -0.1010 -2.4223  0.8096
20788SOL     OW63804   3.435   7.421   3.144 -0.2654  0.2259  0.3700
20788SOL    HW163805   3.529   7.442   3.151 -0.2458  0.4472 -0.4476
20788SOL    HW263806   3.431   7.326   3.152  0.0922  0.1616 -0.2036
20789SOL     OW63807   0.310   4.769  12.151 -0.1757 -0.3534 -0.4449
20789SOL    HW163808   0.325   4.831  12.079  1.2354  0.2743  0.3473
20789SOL    HW263809   0.393   4.722  12.160  0.0147  0.2456  1.3724
20790SOL     OW63810   0.940   7.322   3.593  0.1402 -0.1052  0.5758
20790SOL    HW163811   0.995   7.271   3.534 -0.4196  0.3370 -0.3507
20790SOL    HW263812   0.851   7.297   3.570 -0.1057  0.5963  0.7592
20791SOL     OW63813   3.300   7.287  10.435 -0.0254  0.0688  0.5111
20791SOL    HW163814   3.344   7.208  10.466  1.4777  1.4431  2.1473
20791SOL    HW263815   3.372   7.343  10.403 -1.2177  0.0689 -2.4879
20792SOL     OW63816   2.906   6.823   8.688 -0.4441 -0.2186 -0.2152
20792SOL    HW163817   2.978   6.880   8.664 -0.9911  0.6604  0.1776
20792SOL    HW263818   2.828   6.865   8.651 -0.8743 -0.6083  0.2318
20793SOL     OW63819   1.195   6.032   4.648 -0.1612  0.0250  0.1624
20793SOL    HW163820   1.122   6.060   4.593  0.9747  1.2136 -0.8384
20793SOL    HW263821   1.234   6.114   4.679  0.6529 -0.5727  0.7800
20794SOL     OW63822   4.872   0.535   1.377 -0.0694  0.6242 -0.2572
20794SOL    HW163823   4.864   0.625   1.345  0.2770  0.7097 -0.1127
20794SOL    HW263824   4.952   0.536   1.430 -0.1373  0.2628 -0.1466
20795SOL     OW63825   5.901   6.918   4.841  0.0028 -0.0647  0.1121
20795SOL    HW163826   5.865   7.006   4.843  1.5873  0.6088  1.0405
20795SOL    HW263827   5.862   6.875   4.917 -1.6378 -0.5748 -0.9649
20796SOL     OW63828   1.104   4.733   2.495 -0.0606  0.2804  0.0640
20796SOL    HW163829   1.089   4.808   2.553 -3.3815  0.7640 -1.1700
20796SOL    HW263830   1.096   4.770   2.407  0.1801 -1.2057 -0.6010
20797SOL     OW63831   1.037   4.940   3.938  0.3194 -0.2874 -0.8064
20797SOL    HW163832   0.969   5.007   3.944 -0.2135 -0.7627 -1.4987
20797SOL    HW263833   1.063   4.939   3.846  0.0482 -1.2851 -0.8874
20798SOL     OW63834   6.214   4.230   5.237  0.3339  0.0933 -0.1267
20798SOL    HW163835   6.124   4.256   5.218 -0.8026 -1.4249  2.6132
20798SOL    HW263836   6.266   4.310   5.227 -1.6495  1.4769  0.1700
20799SOL     OW63837   7.716   6.578   7.565  0.4501 -0.3358 -0.2232
20799SOL    HW163838   7.648   6.644   7.555  0.4252 -0.1566  0.9290
20799SOL    HW263839   7.711   6.552   7.657  1.5993 -0.6907 -0.2378
20800SOL     OW63840   3.500   1.100  10.168  0.1683  0.0430 -0.2761
20800SOL    HW163841   3.412   1.134  10.187  0.5316  0.2889  1.1040
20800SOL    HW263842   3.550   1.118  10.248  1.1358 -1.2254 -0.5606
20801SOL     OW63843   6.499   1.993   5.548  0.1080  0.6397  0.8348
20801SOL    HW163844   6.486   2.085   5.524 -1.1932  0.9366  2.4622
20801SOL    HW263845   6.414   1.952   5.533  0.2479  0.0630  1.5522
20802SOL     OW63846   7.128   7.013  11.373 -0.7295  0.1977 -0.3333
20802SOL    HW163847   7.118   6.951  11.301 -3.2493 -1.2022  1.0619
20802SOL    HW263848   7.154   7.095  11.331  0.3462 -1.1675 -2.5047
20803SOL     OW63849   3.429   5.836   5.068  0.2291  0.4043  0.6036
20803SOL    HW163850   3.471   5.900   5.012  0.2449  1.5501  1.8673
20803SOL    HW263851   3.482   5.757   5.059  1.1157  1.0356  0.1991
20804SOL     OW63852   6.733   7.006   7.614  0.1877 -0.2210 -0.4334
20804SOL    HW163853   6.796   7.039   7.551  1.3344 -1.1181  0.2085
20804SOL    HW263854   6.703   6.922   7.578 -0.1544 -0.1090 -0.4186
20805SOL     OW63855   5.362   3.988   2.521  0.1634 -0.5203 -0.5751
20805SOL    HW163856   5.457   3.993   2.507  0.8045 -3.2675  1.9090
20805SOL    HW263857   5.331   4.078   2.509  3.3448  0.7981  0.2693
20806SOL     OW63858   5.563   7.367   6.761 -0.1436  0.3539 -0.2040
20806SOL    HW163859   5.529   7.398   6.844  2.6946  0.7494  0.9209
20806SOL    HW263860   5.578   7.446   6.709 -0.5460  0.2182 -0.5323
20807SOL     OW63861   7.839   6.198   3.029 -0.1443 -0.0920 -0.3651
20807SOL    HW163862   7.831   6.201   3.124  0.4719  0.9221 -0.3256
20807SOL    HW263863   7.762   6.150   3.000 -2.0363  2.2674  0.4505
20808SOL     OW63864   5.013   6.909  11.193  0.9299 -0.3586 -0.3548
20808SOL    HW163865   4.921   6.910  11.218  1.4235 -0.3769  1.5934
20808SOL    HW263866   5.022   6.983  11.133 -0.6140 -1.2008 -1.7033
20809SOL     OW63867   3.651   6.415   3.797  0.0905 -0.7380 -0.3278
20809SOL    HW163868   3.561   6.400   3.770  0.2018  1.3214 -2.1301
20809SOL    HW263869   3.674   6.500   3.758  2.2726 -0.4148  1.4726
20810SOL     OW63870   2.280   4.707   4.388 -0.2589 -0.1656  0.1601
20810SOL    HW163871   2.328   4.790   4.389  0.0547 -0.3040 -1.0991
20810SOL    HW263872   2.270   4.683   4.480  0.0784  1.0203  0.5171
20811SOL     OW63873   2.380   6.407   9.447 -0.0884  0.2985  0.1139
20811SOL    HW163874   2.447   6.352   9.407 -0.4636 -0.8484  1.0126
20811SOL    HW263875   2.413   6.496   9.436  1.0597 -0.1669 -0.4077
20812SOL     OW63876   0.572   4.635   3.926 -0.6718 -0.3066  0.1130
20812SOL    HW163877   0.580   4.620   4.020 -0.7067  0.3377  0.2250
20812SOL    HW263878   0.495   4.691   3.917 -0.1489  0.3816 -0.2104
20813SOL     OW63879   1.664   0.522   8.589  0.1819 -0.2269 -0.2278
20813SOL    HW163880   1.573   0.510   8.565  0.3824  0.8188 -1.5965
20813SOL    HW263881   1.671   0.614   8.614  0.1756 -1.0320  3.1998
20814SOL     OW63882   0.540   6.845   5.741  0.5615  0.0644  0.0132
20814SOL    HW163883   0.615   6.893   5.706  0.2941 -0.2526 -1.0197
20814SOL    HW263884   0.507   6.794   5.667 -0.9236  0.5054  0.3335
20815SOL     OW63885   6.756   6.777   6.967  0.3012  0.1131  0.3468
20815SOL    HW163886   6.839   6.745   6.931 -0.4415 -2.3907  0.6710
20815SOL    HW263887   6.778   6.804   7.056  0.5283 -2.3348  1.1216
20816SOL     OW63888   5.668   0.041   6.973  0.1053 -0.1799 -0.1723
20816SOL    HW163889   5.673   0.004   6.885 -0.3637  0.9097 -0.6857
20816SOL    HW263890   5.636   0.131   6.959 -0.5192 -0.1681  1.1472
20817SOL     OW63891   1.025   2.828   8.988  0.4223 -0.2440  0.2246
20817SOL    HW163892   1.001   2.915   8.956  0.7390  1.0149  3.1256
20817SOL    HW263893   1.043   2.777   8.908 -0.2201  2.1743 -1.5746
20818SOL     OW63894   0.265   3.790   5.677  0.3553  0.2574  0.5816
20818SOL    HW163895   0.340   3.739   5.710 -1.5099 -1.9849  1.6978
20818SOL    HW263896   0.231   3.834   5.755  0.2233  0.8647  0.1818
20819SOL     OW63897   3.503   2.156   3.251 -0.1952 -0.1164 -0.0867
20819SOL    HW163898   3.457   2.095   3.193  0.9183  0.5940 -1.7815
20819SOL    HW263899   3.559   2.207   3.193  0.2703  1.2877  1.5135
20820SOL     OW63900   5.945   1.040   9.959  0.4427  0.3698 -0.2035
20820SOL    HW163901   5.940   0.950   9.991  0.6583  0.6912  0.7665
20820SOL    HW263902   5.896   1.039   9.877  1.1515 -0.8139 -0.6410
20821SOL     OW63903   2.623   4.484   8.924  0.4846  0.0776 -0.3725
20821SOL    HW163904   2.699   4.539   8.908 -0.7821  1.8426 -0.5962
20821SOL    HW263905   2.654   4.417   8.985  1.9912  1.2121  0.1482
20822SOL     OW63906   4.190   1.728   9.788 -0.2009 -0.1641  0.0973
20822SOL    HW163907   4.110   1.678   9.772 -1.4454  1.8326 -0.2375
20822SOL    HW263908   4.242   1.715   9.709 -1.1984  0.3011 -0.6574
20823SOL     OW63909   4.403   4.632   6.093  0.0188  0.6655 -0.5824
20823SOL    HW163910   4.418   4.563   6.157 -1.1991  1.0435  0.1582
20823SOL    HW263911   4.388   4.586   6.010  1.6506  0.1734 -0.6361
20824SOL     OW63912   7.574   6.749   3.678 -0.1429  0.0728 -0.4188
20824SOL    HW163913   7.579   6.803   3.600  0.6819  1.0447  0.2791
20824SOL    HW263914   7.481   6.734   3.692 -0.5554  2.8912  0.4052
20825SOL     OW63915   2.781   3.419   9.562 -0.2479 -0.3796 -0.8220
20825SOL    HW163916   2.768   3.325   9.557  0.6735 -0.4407 -2.4834
20825SOL    HW263917   2.694   3.455   9.580 -0.5407 -1.5396  0.2037
20826SOL     OW63918   5.215   7.566   8.494  0.7116  0.3493 -0.2716
20826SOL    HW163919   5.125   7.561   8.463  0.1769  0.2010  1.2685
20826SOL    HW263920   5.227   7.488   8.548  2.3721 -0.6398 -1.9303
20827SOL     OW63921   3.728   1.217   1.413  0.2132  0.3205 -0.1944
20827SOL    HW163922   3.686   1.230   1.327 -1.7164 -0.4107  0.5705
20827SOL    HW263923   3.671   1.154   1.458  1.9157 -0.3425  1.1440
20828SOL     OW63924   5.014   4.410   3.171 -0.0899  0.3718 -0.2033
20828SOL    HW163925   4.927   4.370   3.177  0.0440 -0.3311 -2.1998
20828SOL    HW263926   5.073   4.336   3.157  0.6367  0.9611 -0.2776
20829SOL     OW63927   4.964   1.442   6.425 -0.4865 -0.0171  0.4839
20829SOL    HW163928   5.000   1.438   6.514 -1.1783 -0.7435  0.7527
20829SOL    HW263929   4.904   1.516   6.427  1.4393  1.6510 -0.1721
20830SOL     OW63930   1.143   3.467   1.684 -0.5213  0.1352  0.1509
20830SOL    HW163931   1.220   3.412   1.693  0.0533  0.9701  0.4523
20830SOL    HW263932   1.085   3.440   1.755  0.1105  0.4680  0.8076
20831SOL     OW63933   4.957   6.530   6.643 -0.1682 -0.5899  0.1420
20831SOL    HW163934   4.964   6.545   6.738 -0.0639  1.1468 -0.1165
20831SOL    HW263935   4.998   6.444   6.630  1.8843  0.1317  1.3760
20832SOL     OW63936   1.010   1.597   6.402 -0.3556  0.9185  0.0287
20832SOL    HW163937   1.048   1.510   6.416 -4.0059 -0.7930  0.3256
20832SOL    HW263938   1.043   1.625   6.317  1.9051 -0.1227  0.5003
20833SOL     OW63939   1.205   0.107  12.246 -0.4164 -0.0033  0.4949
20833SOL    HW163940   1.266   0.052  12.198  0.6750  1.3262  0.2690
20833SOL    HW263941   1.153   0.150  12.179 -0.3955  0.1800  0.5928
20834SOL     OW63942   3.778   5.798   2.197  0.4200  0.0642  0.2455
20834SOL    HW163943   3.731   5.863   2.250 -2.4934  0.4142 -2.4309
20834SOL    HW263944   3.839   5.851   2.145  0.4166  0.2683  0.4471
20835SOL     OW63945   3.396   5.384  10.726  0.5048  0.2509 -0.6874
20835SOL    HW163946   3.419   5.471  10.695 -0.6842  1.1844  0.9146
20835SOL    HW263947   3.301   5.380  10.718  0.5117 -0.7639 -0.4034
20836SOL     OW63948   4.900   6.657   8.326  0.0594 -0.3265  0.1936
20836SOL    HW163949   4.842   6.730   8.302  1.1156  0.3636 -0.3071
20836SOL    HW263950   4.864   6.625   8.409 -0.3572  0.8449  0.4882
20837SOL     OW63951   0.693   2.137   9.706  0.1448 -0.5438  0.1132
20837SOL    HW163952   0.645   2.110   9.784 -0.4378  0.2239  0.0368
20837SOL    HW263953   0.783   2.150   9.737 -0.0893 -0.2029  0.6738
20838SOL     OW63954   6.425   4.659   3.826 -0.2002 -0.0606  0.8216
20838SOL    HW163955   6.502   4.666   3.768  0.1965 -0.9389  1.2323
20838SOL    HW263956   6.391   4.748   3.830 -0.5066 -0.0415 -1.1336
20839SOL     OW63957   6.988   7.067  12.119  0.1074 -0.4494  0.0715
20839SOL    HW163958   6.920   7.053  12.053  0.3590 -1.5005  0.0100
20839SOL    HW263959   7.056   7.004  12.097  0.9360  0.3143  0.3704
20840SOL     OW63960   4.275   6.062   6.947 -0.8445 -0.2165  0.3153
20840SOL    HW163961   4.216   6.022   7.010 -0.5640 -1.0695  0.0473
20840SOL    HW263962   4.262   6.013   6.866  0.3622 -0.5561  0.3029
20841SOL     OW63963   6.907   3.728   0.696  0.0962 -0.0688 -0.3648
20841SOL    HW163964   6.972   3.751   0.761 -0.0637  0.9046 -0.5390
20841SOL    HW263965   6.955   3.728   0.613 -0.0754  0.4254 -0.4649
20842SOL     OW63966   0.820   3.311   0.693 -0.6546  0.3189 -0.1027
20842SOL    HW163967   0.748   3.370   0.674  0.1534  2.1689  2.1296
20842SOL    HW263968   0.893   3.369   0.716  0.5796 -1.5221  0.8868
20843SOL     OW63969   4.876   2.272   9.976 -0.1503  0.2411 -0.2505
20843SOL    HW163970   4.847   2.246  10.063 -0.2729  1.0096 -0.0567
20843SOL    HW263971   4.798   2.304   9.932 -0.1356 -0.3567 -0.7375
20844SOL     OW63972   7.450   1.874   0.145 -0.3930  0.5353  0.0339
20844SOL    HW163973   7.380   1.939   0.160  0.7008  1.8496 -0.3689
20844SOL    HW263974   7.528   1.927   0.128  0.2535 -0.8919 -1.6921
20845SOL     OW63975   1.423   1.628   8.352 -0.1307 -0.5941 -0.1979
20845SOL    HW163976   1.373   1.680   8.290 -1.1992 -1.7682 -0.3598
20845SOL    HW263977   1.439   1.545   8.306  0.5227 -0.8570  0.4807
20846SOL     OW63978   4.859   7.756  12.250  0.1537 -0.0238  0.1126
20846SOL    HW163979   4.938   7.808  12.248  1.0190 -0.8918  3.9316
20846SOL    HW263980   4.788   7.819  12.263  0.8388  0.4669  1.6393
20847SOL     OW63981   6.626   1.534   0.439 -0.4836 -0.1546  0.0012
20847SOL    HW163982   6.626   1.598   0.368  0.5808 -0.1776 -0.0296
20847SOL    HW263983   6.552   1.560   0.494  0.3912  1.5884  0.4216
20848SOL     OW63984   2.101   0.816  10.800  0.4089  0.2181 -0.1889
20848SOL    HW163985   2.007   0.808  10.816  0.4360 -1.0462 -0.5434
20848SOL    HW263986   2.140   0.820  10.888  0.0356  0.7068 -0.0427
20849SOL     OW63987   6.306   0.984  11.987 -0.1053 -0.2531 -0.2240
20849SOL    HW163988   6.286   0.891  11.988 -1.7128  0.0640 -0.1299
20849SOL    HW263989   6.344   0.999  11.900 -2.1223 -0.5761 -1.2083
20850SOL     OW63990   1.287   1.244   1.117  0.1353 -0.4917 -0.4090
20850SOL    HW163991   1.263   1.253   1.025  2.3482 -1.3280 -1.1197
20850SOL    HW263992   1.341   1.321   1.135 -0.1704 -0.4055  0.1671
20851SOL     OW63993   5.840   5.134   5.431 -0.5772 -0.5519  0.3321
20851SOL    HW163994   5.823   5.100   5.343 -3.9940  0.0654  0.6119
20851SOL    HW263995   5.908   5.200   5.419  0.4125 -1.8011 -1.4793
20852SOL     OW63996   0.092   6.620   7.007 -0.3698 -0.1785 -0.0167
20852SOL    HW163997   0.154   6.691   7.022  1.7935 -1.8451 -0.6000
20852SOL    HW263998   0.146   6.545   6.983 -2.6697 -1.5693 -1.2467
20853SOL     OW63999   5.647   6.932   8.178  0.2339  0.4055 -0.5609
20853SOL    HW164000   5.720   6.928   8.116 -0.9308  3.0593 -2.2669
20853SOL    HW264001   5.613   6.842   8.180  3.4859 -0.9499  0.3975
20854SOL     OW64002   7.461   5.275   7.283 -0.5126  0.5954  0.2177
20854SOL    HW164003   7.434   5.254   7.373  1.5298 -0.3290  0.6609
20854SOL    HW264004   7.437   5.197   7.232  0.3731  0.1806  0.4206
20855SOL     OW64005   7.836   0.743   1.290 -0.2059  0.1104 -0.0011
20855SOL    HW164006   7.842   0.695   1.207 -1.1065 -1.8837  0.9970
20855SOL    HW264007   7.815   0.833   1.265 -1.5548 -0.6687 -1.9106
20856SOL     OW64008   7.712   6.324   1.196  0.2831 -0.1643 -0.0738
20856SOL    HW164009   7.776   6.284   1.137  0.4356 -1.1458  0.7217
20856SOL    HW264010   7.764   6.364   1.265  0.0741 -2.1990  1.3552
20857SOL     OW64011   7.381   1.722   7.246  0.4798  0.1551 -0.0852
20857SOL    HW164012   7.376   1.760   7.158 -2.5289  3.7844  1.3874
20857SOL    HW264013   7.318   1.651   7.245 -0.5869  1.0868 -0.5341
20858SOL     OW64014   7.169   4.133   3.516  0.4757  0.0678  0.2024
20858SOL    HW164015   7.226   4.208   3.498 -0.9787  1.1901  0.1339
20858SOL    HW264016   7.095   4.169   3.564  0.0609 -1.4571  0.7911
20859SOL     OW64017   3.970   2.037   6.137  0.0619  0.5324 -0.0994
20859SOL    HW164018   4.006   2.121   6.168  1.1471  0.0907 -0.0922
20859SOL    HW264019   3.880   2.036   6.168  0.6579  0.7818  1.7376
20860SOL     OW64020   5.869   0.840  11.854 -0.5312  0.4292  0.3040
20860SOL    HW164021   5.866   0.876  11.765 -2.5792  1.2589  0.6383
20860SOL    HW264022   5.857   0.916  11.911 -1.7542 -0.3637  1.1585
20861SOL     OW64023   3.364   3.364   0.824 -0.2411  0.1532 -0.2844
20861SOL    HW164024   3.274   3.339   0.846  0.2338 -0.7617  0.6686
20861SOL    HW264025   3.409   3.281   0.807  0.7342  0.5020  0.4986
20862SOL     OW64026   3.997   2.080  10.762 -0.4725  0.1451 -0.4014
20862SOL    HW164027   3.933   2.116  10.824  0.2783 -0.5317  0.8075
20862SOL    HW264028   4.082   2.109  10.797 -0.0638  0.5059 -1.6317
20863SOL     OW64029   4.341   7.875   3.764 -0.0851  0.3939 -0.4215
20863SOL    HW164030   4.316   7.823   3.841  2.9647 -0.1733  0.3059
20863SOL    HW264031   4.327   7.966   3.791 -2.1447  0.1381 -0.4468
20864SOL     OW64032   1.977   5.176   7.005 -0.2846 -0.3839  0.0357
20864SOL    HW164033   2.011   5.174   7.095  0.3327  1.2126 -0.1429
20864SOL    HW264034   1.882   5.171   7.016 -0.2075 -0.3965  0.7637
20865SOL     OW64035   3.453   5.620   9.277 -0.2667 -0.5243  0.3676
20865SOL    HW164036   3.515   5.574   9.220 -1.5911  0.5388 -2.1068
20865SOL    HW264037   3.438   5.703   9.233 -1.8708  0.1141  2.0060
20866SOL     OW64038   3.142   0.576   7.871 -0.1676  0.1389  0.4459
20866SOL    HW164039   3.067   0.518   7.855 -1.2796  1.3324  1.1310
20866SOL    HW264040   3.143   0.635   7.795 -0.2334  0.4388  0.6776
20867SOL     OW64041   5.665   3.726   4.812  0.0629 -0.5609  0.1140
20867SOL    HW164042   5.724   3.764   4.747  0.5967  1.3430  1.6003
20867SOL    HW264043   5.704   3.751   4.896 -1.9852 -0.6756  1.1433
20868SOL     OW64044   1.921   2.728   0.334  0.2787 -0.2303 -0.6186
20868SOL    HW164045   2.017   2.732   0.339  0.3244  1.9866 -2.0029
20868SOL    HW264046   1.892   2.808   0.377 -1.0857 -1.5891  1.1258
20869SOL     OW64047   3.685   6.815   5.267  0.1685  0.4731  0.0745
20869SOL    HW164048   3.753   6.782   5.325 -1.0701 -1.4157  0.5505
20869SOL    HW264049   3.712   6.905   5.246  0.7064  1.2597  3.5418
20870SOL     OW64050   4.910   1.760   2.794 -0.3584  0.4804  0.5983
20870SOL    HW164051   4.870   1.677   2.822 -1.4343  1.0491  0.8132
20870SOL    HW264052   4.850   1.827   2.826 -1.7781  1.2039 -3.0848
20871SOL     OW64053   1.489   1.726  10.639 -0.0262 -0.3009  0.0514
20871SOL    HW164054   1.432   1.720  10.562  0.8813 -0.3268 -0.6440
20871SOL    HW264055   1.537   1.808  10.628 -0.8394  0.3637  1.2903
20872SOL     OW64056   3.119   7.917   5.062  0.2597  0.2033  0.2939
20872SOL    HW164057   3.119   7.942   5.154 -0.3858  2.3033 -0.2171
20872SOL    HW264058   3.207   7.939   5.031  0.7137 -1.1695  0.5333
20873SOL     OW64059   2.886   6.287   1.446 -0.0449 -0.2039  0.6115
20873SOL    HW164060   2.858   6.243   1.527 -1.3891 -0.5550  0.0009
20873SOL    HW264061   2.917   6.216   1.390  0.1655 -0.0590  0.5444
20874SOL     OW64062   2.488   3.205   5.067 -0.2463 -0.0085 -0.1355
20874SOL    HW164063   2.527   3.172   4.986  0.5584  1.6326 -0.4606
20874SOL    HW264064   2.512   3.141   5.133  0.8703 -0.3250 -0.8185
20875SOL     OW64065   2.735   2.301   4.261  0.3279  0.2124 -0.2807
20875SOL    HW164066   2.802   2.318   4.327  0.2331  1.4570 -0.4815
20875SOL    HW264067   2.677   2.377   4.264 -0.6409 -0.4775 -0.6563
20876SOL     OW64068   0.432   6.562   3.356 -0.0803  0.0841 -0.3281
20876SOL    HW164069   0.484   6.565   3.437 -2.1570 -0.2175  1.1003
20876SOL    HW264070   0.475   6.496   3.303  1.0861 -0.0418  0.7165
20877SOL     OW64071   0.193   4.040  10.013 -0.3010  0.4824 -0.0715
20877SOL    HW164072   0.102   4.027  10.042 -0.7515  2.2399 -0.5930
20877SOL    HW264073   0.185   4.065   9.921  0.7931 -0.1881 -0.3712
20878SOL     OW64074   0.714   2.684   1.643 -0.2247 -0.1907  0.5013
20878SOL    HW164075   0.746   2.596   1.661  0.4171 -0.1342 -0.2742
20878SOL    HW264076   0.765   2.741   1.701  0.6401 -0.1656 -0.2708
20879SOL     OW64077   2.368   0.205   6.331  0.2641  0.1001  0.0330
20879SOL    HW164078   2.349   0.255   6.251  1.6772  0.7587  0.0750
20879SOL    HW264079   2.461   0.185   6.324 -0.0428 -1.6396  0.5420
20880SOL     OW64080   2.908   7.852   9.017  0.1285 -0.5859 -0.3124
20880SOL    HW164081   2.861   7.769   9.011  1.0069 -1.0344 -1.1032
20880SOL    HW264082   2.968   7.852   8.942  0.7973  0.3475  0.1997
20881SOL     OW64083   1.963   6.008   3.674  0.4700  0.1367 -0.4282
20881SOL    HW164084   1.869   5.990   3.664  0.2596 -0.2962  1.9216
20881SOL    HW264085   1.984   6.062   3.598 -1.8542  0.8472 -0.6524
20882SOL     OW64086   2.512   1.396   9.699  0.0094  0.3841  0.4214
20882SOL    HW164087   2.589   1.346   9.724 -0.1373  0.2652  0.6308
20882SOL    HW264088   2.513   1.472   9.757  1.1180  1.4667 -0.9321
20883SOL     OW64089   3.511   6.169   5.995  0.7789 -0.1328 -0.6263
20883SOL    HW164090   3.510   6.225   5.918  1.2753 -0.3473 -0.7917
20883SOL    HW264091   3.597   6.128   5.994  0.9662  0.2155  0.3039
20884SOL     OW64092   4.829   0.062   4.955  0.0826  0.3660 -0.6772
20884SOL    HW164093   4.796   0.150   4.939 -0.0231  0.4929  0.2275
20884SOL    HW264094   4.751   0.006   4.954 -0.0209  0.4857  0.1623
20885SOL     OW64095   4.701   5.797  11.050 -0.1161  0.1876  0.0924
20885SOL    HW164096   4.772   5.753  11.097  0.7821  0.0175 -1.3397
20885SOL    HW264097   4.741   5.825  10.967 -1.9576 -0.8365 -1.2381
20886SOL     OW64098   1.565   1.805   2.178  0.0875  0.1865  0.5259
20886SOL    HW164099   1.646   1.755   2.170 -0.0788 -0.1879  1.1322
20886SOL    HW264100   1.542   1.828   2.088  1.1368  0.7380  0.3737
20887SOL     OW64101   1.515   7.273   1.000 -0.4991 -0.0239  0.7374
20887SOL    HW164102   1.605   7.297   0.978 -0.5600  1.2208  1.7590
20887SOL    HW264103   1.519   7.178   1.015  0.3383 -0.2250 -0.5313
20888SOL     OW64104   1.683   0.328   5.926  0.6568 -0.0674  0.2445
20888SOL    HW164105   1.694   0.420   5.949  1.4463 -0.1451  0.1947
20888SOL    HW264106   1.772   0.295   5.916  0.4337 -1.2229  1.7321
20889SOL     OW64107   7.730   1.247   3.713 -0.5270  0.5019  0.5553
20889SOL    HW164108   7.667   1.250   3.642  0.4810 -0.7846 -0.4236
20889SOL    HW264109   7.816   1.251   3.670  0.1072  1.6922  1.8193
20890SOL     OW64110   6.205   6.362   4.360  0.2558 -0.0015 -0.8840
20890SOL    HW164111   6.117   6.339   4.390  0.3088 -1.7421 -1.8835
20890SOL    HW264112   6.241   6.417   4.430 -1.6823  0.9306 -0.5646
20891SOL     OW64113   2.859   5.145   3.610 -0.6257  0.1835 -0.1622
20891SOL    HW164114   2.862   5.086   3.685  2.7891 -1.0307 -1.0762
20891SOL    HW264115   2.851   5.087   3.534  0.6117  0.9950 -0.9579
20892SOL     OW64116   2.487   0.678   3.973 -0.1217  0.6126  0.2290
20892SOL    HW164117   2.530   0.690   4.058 -0.1635  0.4636  0.2716
20892SOL    HW264118   2.397   0.708   3.987 -0.5746 -0.8608  0.6746
20893SOL     OW64119   1.662   1.119   1.453 -0.5958  0.1524  0.0533
20893SOL    HW164120   1.730   1.062   1.490 -0.4209 -1.5195 -2.5861
20893SOL    HW264121   1.641   1.180   1.524  0.8647 -1.7323  2.2656
20894SOL     OW64122   3.590   2.788   9.587  0.8125  0.2089  0.4381
20894SOL    HW164123   3.657   2.770   9.521  0.3049 -0.8455  0.1922
20894SOL    HW264124   3.517   2.826   9.538 -0.0902 -1.8058  0.1415
20895SOL     OW64125   4.505   1.516   8.448  0.1305 -0.1593  0.7851
20895SOL    HW164126   4.533   1.561   8.368 -0.4251 -0.9328  0.1489
20895SOL    HW264127   4.581   1.522   8.506  1.0924 -0.9032 -0.3509
20896SOL     OW64128   7.043   1.062  10.223 -0.4754  0.5698 -0.1541
20896SOL    HW164129   7.002   1.143  10.251 -1.6320 -0.5921  1.7621
20896SOL    HW264130   6.983   1.025  10.159 -0.0407  1.1093 -0.8868
20897SOL     OW64131   2.396   2.316   5.653 -0.8116  0.4552  0.1813
20897SOL    HW164132   2.329   2.349   5.714 -2.4093  1.1329 -1.8230
20897SOL    HW264133   2.433   2.395   5.613  1.8118  0.1404  1.7562
20898SOL     OW64134   1.019   5.180   3.561  0.4127  0.2687  0.0432
20898SOL    HW164135   0.936   5.167   3.515  0.1687 -1.0925  0.8003
20898SOL    HW264136   1.081   5.203   3.492 -0.1768 -0.6712 -0.8342
20899SOL     OW64137   7.334   4.862   0.779  0.1479  0.2128  0.1050
20899SOL    HW164138   7.409   4.877   0.837  0.7407  0.3060 -0.6644
20899SOL    HW264139   7.273   4.932   0.800  1.4131  1.7595 -1.0731
20900SOL     OW64140   4.305   3.653   7.810 -0.5715 -0.5259  0.2077
20900SOL    HW164141   4.345   3.726   7.763 -0.2636 -1.4090 -0.9592
20900SOL    HW264142   4.363   3.638   7.885  0.8063 -1.1694 -0.9339
20901SOL     OW64143   1.489   4.189   2.439 -0.2646  0.0582  0.3478
20901SOL    HW164144   1.476   4.281   2.416 -1.4765 -0.2444 -0.2684
20901SOL    HW264145   1.442   4.141   2.371  0.6326 -1.0276  0.4779
20902SOL     OW64146   3.234   2.185  10.292 -0.0420 -0.6245  0.4132
20902SOL    HW164147   3.180   2.159  10.218 -0.3831 -1.8978  1.0859
20902SOL    HW264148   3.189   2.260  10.330 -0.2954 -0.4749 -0.1815
20903SOL     OW64149   7.343   5.119   3.292  0.2958  0.1022 -0.8361
20903SOL    HW164150   7.347   5.034   3.249 -2.8605  0.4076 -2.0251
20903SOL    HW264151   7.330   5.181   3.220 -1.1865  1.1050  0.2427
20904SOL     OW64152   4.606   2.183   6.730  0.1382  0.6615  0.3674
20904SOL    HW164153   4.564   2.261   6.692  1.7016  1.5573  0.4115
20904SOL    HW264154   4.654   2.144   6.657 -2.6188 -1.7985 -0.3342
20905SOL     OW64155   1.414   2.396  12.184  0.0345  0.3732  0.5098
20905SOL    HW164156   1.436   2.456  12.256 -0.7615 -0.1843  1.2285
20905SOL    HW264157   1.498   2.358  12.159  0.4895  1.4414  0.3426
20906SOL     OW64158   0.338   0.574   3.703 -0.3793  0.2454 -0.1362
20906SOL    HW164159   0.389   0.502   3.741  1.6639  1.2028 -0.9005
20906SOL    HW264160   0.254   0.570   3.747  0.6323 -0.9309  1.8277
20907SOL     OW64161   2.507   1.911  11.052 -0.8846  0.3644 -0.2367
20907SOL    HW164162   2.549   1.993  11.028 -0.4283  0.8064  1.8207
20907SOL    HW264163   2.462   1.882  10.973  0.5664  1.5761 -1.5655
20908SOL     OW64164   0.020   0.295  11.755 -0.0405 -0.5676 -0.0081
20908SOL    HW164165   0.057   0.222  11.706  1.0733 -1.0119  1.4177
20908SOL    HW264166   0.073   0.371  11.730 -1.7782  0.0302 -2.1972
20909SOL     OW64167   0.977   6.819  11.361  0.0679  0.0426  0.9592
20909SOL    HW164168   1.062   6.779  11.375  0.6660 -0.5258 -3.1884
20909SOL    HW264169   0.917   6.746  11.349 -0.6237  0.4543  1.7456
20910SOL     OW64170   3.149   2.349   3.511 -0.4473  0.2127 -0.2308
20910SOL    HW164171   3.184   2.438   3.509 -0.3677  0.2317  1.0752
20910SOL    HW264172   3.173   2.312   3.426 -0.4774  1.4247 -0.7921
20911SOL     OW64173   1.763   5.752  12.074 -0.2677  1.0156  0.7439
20911SOL    HW164174   1.679   5.709  12.089 -0.6297  0.3680 -2.3878
20911SOL    HW264175   1.749   5.803  11.994  1.9678  1.9295  0.8799
20912SOL     OW64176   1.588   7.133   7.607  0.1234  0.3942  0.1567
20912SOL    HW164177   1.650   7.206   7.611  0.8248 -0.2203  0.7841
20912SOL    HW264178   1.643   7.056   7.592 -0.4742 -0.1797  0.8475
20913SOL     OW64179   1.982   2.731   3.127  0.1854 -0.2673 -0.2916
20913SOL    HW164180   1.996   2.773   3.042 -0.4201  0.9490  0.1813
20913SOL    HW264181   2.062   2.681   3.142  0.1773 -0.7465 -1.7106
20914SOL     OW64182   6.009   2.249  11.285 -0.3008  0.7290  0.1421
20914SOL    HW164183   6.014   2.198  11.365  0.3204  2.3619  1.1885
20914SOL    HW264184   6.091   2.231  11.239 -0.8247 -0.5071 -0.3538
20915SOL     OW64185   7.758   6.376   5.661  0.2744  0.1518  0.6540
20915SOL    HW164186   7.744   6.389   5.755  0.2948  1.7504  0.4536
20915SOL    HW264187   7.697   6.306   5.637  0.3978 -0.3950  1.8834
20916SOL     OW64188   3.361   0.107  11.552  0.1454  0.3757  0.2404
20916SOL    HW164189   3.303   0.164  11.502  1.3804  2.0851  0.6408
20916SOL    HW264190   3.314   0.089  11.633 -1.9840 -2.6187 -1.4501
20917SOL     OW64191   7.358   2.838   0.053 -0.3435  0.5993  0.0377
20917SOL    HW164192   7.371   2.841  -0.042  0.0561 -1.0204  0.0086
20917SOL    HW264193   7.381   2.748   0.077 -0.5061  0.9681  1.6644
20918SOL     OW64194   6.260   5.593   6.858  0.3798  0.4583  0.0546
20918SOL    HW164195   6.167   5.601   6.876  0.7307  1.9244  1.4795
20918SOL    HW264196   6.301   5.658   6.915  2.2899 -0.2595 -0.4202
20919SOL     OW64197   3.174   2.089   4.024  0.1609  0.1860 -0.2739
20919SOL    HW164198   3.183   2.133   4.109  0.1249  1.3950 -0.8816
20919SOL    HW264199   3.221   2.146   3.963 -0.1798 -0.4548 -1.1430
20920SOL     OW64200   7.630   3.889   8.489  0.3310  0.5974 -0.3524
20920SOL    HW164201   7.569   3.960   8.472  1.7744  1.7053 -1.1475
20920SOL    HW264202   7.716   3.926   8.468  1.0637 -1.5891 -1.5174
20921SOL     OW64203   3.244   5.838  10.258 -0.0102  0.3198 -0.2888
20921SOL    HW164204   3.337   5.841  10.278  0.1686  1.5755 -1.1948
20921SOL    HW264205   3.236   5.775  10.187  0.0955 -0.0378  0.0149
20922SOL     OW64206   4.745   4.434   0.982 -0.0523  0.2531 -0.5230
20922SOL    HW164207   4.669   4.383   0.954 -0.6507 -0.6270  2.3808
20922SOL    HW264208   4.733   4.520   0.943 -0.3869 -1.0035 -3.4101
20923SOL     OW64209   6.053   7.655   3.867 -0.2995  0.1347 -0.2735
20923SOL    HW164210   6.065   7.732   3.812 -0.1545  1.5106  1.5801
20923SOL    HW264211   5.976   7.675   3.920  2.0495  0.9977  3.1906
20924SOL     OW64212   0.731   4.827   5.656  0.2828 -0.3215  0.4719
20924SOL    HW164213   0.766   4.916   5.660  1.2583 -0.6903  0.4262
20924SOL    HW264214   0.760   4.787   5.738 -0.0576 -0.6334  0.4420
20925SOL     OW64215   1.530   7.390   8.382 -0.4320  0.5393  0.2154
20925SOL    HW164216   1.578   7.310   8.362  1.1473  1.3323  0.7019
20925SOL    HW264217   1.441   7.360   8.402  0.1446 -1.1052  0.4856
20926SOL     OW64218   2.674   2.653   4.134  0.9983  0.1276  0.8132
20926SOL    HW164219   2.743   2.599   4.094  0.6305  0.1374  0.1511
20926SOL    HW264220   2.680   2.634   4.228  2.0612  0.3095  0.7959
20927SOL     OW64221   3.240   0.767   9.377 -0.3562  0.0222 -0.3462
20927SOL    HW164222   3.221   0.859   9.393  3.0708  0.4531  2.6324
20927SOL    HW264223   3.315   0.768   9.318 -0.1454 -0.8388 -0.1070
20928SOL     OW64224   5.931   3.999   9.111  0.2683  1.1309 -0.5565
20928SOL    HW164225   5.897   3.942   9.179 -0.2443  1.4648 -0.5251
20928SOL    HW264226   5.953   4.080   9.157  0.6933  1.0726 -0.6530
20929SOL     OW64227   1.650   3.654   2.617 -0.1544  0.6103  0.2592
20929SOL    HW164228   1.594   3.726   2.587 -0.2419  0.9496  1.2062
20929SOL    HW264229   1.703   3.693   2.687 -0.3344 -0.2958  0.9134
20930SOL     OW64230   4.630   6.533   9.588  0.3892  0.5816  0.7407
20930SOL    HW164231   4.561   6.552   9.651  1.5329  2.9451  1.4015
20930SOL    HW264232   4.607   6.585   9.511  0.3915 -0.2008  0.2025
20931SOL     OW64233   1.147   0.882   8.144  0.0193  0.5249 -0.1871
20931SOL    HW164234   1.188   0.917   8.223  0.4735 -0.6714  0.1224
20931SOL    HW264235   1.201   0.915   8.072  1.5276 -0.9634  0.2129
20932SOL     OW64236   7.188   2.054   6.866 -0.5300  0.3719  0.3538
20932SOL    HW164237   7.178   2.118   6.795  1.6825 -0.0501 -0.4099
20932SOL    HW264238   7.226   2.104   6.938 -0.9247  0.3812  0.5572
20933SOL     OW64239   3.555   0.057   4.725  0.2655  0.3900  0.3075
20933SOL    HW164240   3.491   0.018   4.665  0.7547 -0.6687  0.4442
20933SOL    HW264241   3.619   0.099   4.668 -0.2034  0.9013  0.1502
20934SOL     OW64242   2.225   4.534   3.908  0.7755  0.0326 -0.4697
20934SOL    HW164243   2.155   4.580   3.862 -2.1885 -0.6507  2.8564
20934SOL    HW264244   2.258   4.598   3.972  1.4442 -0.4237 -0.3486
20935SOL     OW64245   6.307   5.680   0.765 -0.0115  0.3516 -0.0913
20935SOL    HW164246   6.277   5.593   0.740  1.9033 -0.2354 -0.5820
20935SOL    HW264247   6.244   5.710   0.830 -2.1272 -0.3256 -1.7165
20936SOL     OW64248   6.107   6.901   6.754 -0.0802 -0.2095 -0.4951
20936SOL    HW164249   6.052   6.852   6.692  0.5547 -1.0542 -0.4202
20936SOL    HW264250   6.095   6.993   6.729 -3.1401 -0.1241  0.8358
20937SOL     OW64251   5.808   6.659   4.634  0.2114  0.6488 -0.0070
20937SOL    HW164252   5.754   6.687   4.560  2.2815  3.3145 -0.6896
20937SOL    HW264253   5.808   6.734   4.693  1.1634 -0.2275  1.1504
20938SOL     OW64254   1.085   5.733   7.123 -0.2782 -0.5271  0.3659
20938SOL    HW164255   1.083   5.721   7.028  1.6355  2.1423 -0.1256
20938SOL    HW264256   1.176   5.751   7.144 -0.7774 -0.2331  2.6077
20939SOL     OW64257   0.309   2.220   2.525  0.0692  0.5514  0.2742
20939SOL    HW164258   0.303   2.284   2.455 -0.4693  0.1536 -0.0519
20939SOL    HW264259   0.231   2.236   2.579  0.5858  0.9893  0.8970
20940SOL     OW64260   6.960   1.105   9.467  0.1373  0.1919 -0.1273
20940SOL    HW164261   6.915   1.058   9.537 -0.4144 -0.7093 -1.0549
20940SOL    HW264262   7.022   1.163   9.512  0.7966 -1.3756  1.0740
20941SOL     OW64263   5.662   1.488   3.290  0.2609 -0.0331  0.5536
20941SOL    HW164264   5.637   1.499   3.198  0.1170  0.8708  0.6958
20941SOL    HW264265   5.699   1.400   3.294 -0.0127 -0.1973 -0.3070
20942SOL     OW64266   7.906   0.577   7.233  0.3102 -0.1263 -0.1933
20942SOL    HW164267   7.951   0.498   7.264  0.6399  0.0407 -0.2416
20942SOL    HW264268   7.907   0.569   7.137  0.8247  0.2007 -0.2153
20943SOL     OW64269   7.292   1.070   4.182 -0.3855 -0.3640  0.1281
20943SOL    HW164270   7.293   1.028   4.268  2.5274 -0.8322 -0.0392
20943SOL    HW264271   7.299   1.164   4.201 -0.7634 -0.3853  0.3909
20944SOL     OW64272   0.035   2.427   7.358 -0.6429 -0.2707 -0.0167
20944SOL    HW164273   0.079   2.343   7.346 -1.7406 -0.6831 -1.6971
20944SOL    HW264274   0.033   2.441   7.452  1.1391 -1.2406  0.2030
20945SOL     OW64275   2.208   6.257  11.003 -0.3695 -0.2603 -0.2247
20945SOL    HW164276   2.154   6.327  10.966  0.5642  1.5334  1.6161
20945SOL    HW264277   2.159   6.228  11.080 -0.0997 -0.6770 -0.2133
20946SOL     OW64278   4.891   4.236   7.135 -0.0936 -0.3463  0.0939
20946SOL    HW164279   4.849   4.205   7.215 -1.5772 -2.6666 -1.4624
20946SOL    HW264280   4.823   4.228   7.068  1.7280 -0.5706 -1.8178
20947SOL     OW64281   3.028   4.241   6.530 -0.5847 -0.4519 -0.4227
20947SOL    HW164282   3.056   4.150   6.542 -1.4423 -0.7080 -0.3352
20947SOL    HW264283   3.019   4.251   6.435 -1.6786 -0.8272 -0.3675
20948SOL     OW64284   1.794   6.554   8.489 -0.0087 -0.0928  0.6883
20948SOL    HW164285   1.835   6.469   8.505 -2.2839 -1.0912  1.4970
20948SOL    HW264286   1.742   6.571   8.567 -0.0517  1.7985  0.2969
20949SOL     OW64287   3.971   0.091  11.213  0.3449  0.3525  0.3749
20949SOL    HW164288   3.921   0.162  11.172  3.4848  0.5424 -3.7805
20949SOL    HW264289   3.940   0.011  11.170  1.1243  0.0143  0.4236
20950SOL     OW64290   0.495   5.179   6.547 -0.5588 -0.1802 -0.1903
20950SOL    HW164291   0.461   5.266   6.526  0.9453 -0.1766 -3.2040
20950SOL    HW264292   0.453   5.120   6.485 -0.7084 -1.4535  1.0613
20951SOL     OW64293   2.752   4.124  11.151 -0.9282  0.7279  0.0154
20951SOL    HW164294   2.819   4.139  11.085 -1.6849  0.0434 -0.9347
20951SOL    HW264295   2.795   4.144  11.234 -0.3497  2.9053 -0.7498
20952SOL     OW64296   5.341   6.556   0.303 -0.3984  0.5269 -0.1266
20952SOL    HW164297   5.305   6.626   0.358  0.8235  1.2435 -0.2054
20952SOL    HW264298   5.411   6.518   0.355 -0.4802 -0.0632 -0.4436
20953SOL     OW64299   4.058   7.284   1.048  0.2541  0.4019 -0.1795
20953SOL    HW164300   3.973   7.269   1.089  0.9247 -0.1595  1.0719
20953SOL    HW264301   4.049   7.368   1.004 -0.6323  0.8562  0.8222
20954SOL     OW64302   0.512   1.506   6.322  0.6268  0.3261 -0.0398
20954SOL    HW164303   0.575   1.495   6.393 -0.2175 -0.7923  0.5808
20954SOL    HW264304   0.461   1.583   6.347  0.2792 -0.1122  0.6365
20955SOL     OW64305   0.510   5.588  11.646  0.0555  0.3164 -0.2212
20955SOL    HW164306   0.422   5.622  11.664 -1.6032 -2.4061 -2.4109
20955SOL    HW264307   0.534   5.625  11.561  0.3449 -0.1542 -0.3501
20956SOL     OW64308   6.389   0.290   2.485 -0.1449  0.5542 -0.2820
20956SOL    HW164309   6.470   0.254   2.449 -0.3223 -0.7523  0.5796
20956SOL    HW264310   6.415   0.377   2.518  1.4502 -0.5959  1.7919
20957SOL     OW64311   0.056   1.793   7.929 -0.3399  0.0054  0.1824
20957SOL    HW164312   0.129   1.838   7.887 -1.2733  2.3819  0.9495
20957SOL    HW264313   0.087   1.772   8.017 -0.2398  0.0549  0.1577
20958SOL     OW64314   0.064   3.247   4.101  0.4065  0.0913  0.6465
20958SOL    HW164315  -0.005   3.263   4.165 -0.0256  0.5417  0.0858
20958SOL    HW264316   0.098   3.160   4.122 -0.1806 -0.0364  1.0716
20959SOL     OW64317   5.921   0.056   6.017 -0.0037  0.2619 -0.5653
20959SOL    HW164318   5.973   0.123   6.062  0.6896 -0.0500 -0.8800
20959SOL    HW264319   5.945   0.066   5.924 -1.0487  0.5812 -0.8093
20960SOL     OW64320   5.436   5.033   1.848  0.8145 -0.2657  0.0883
20960SOL    HW164321   5.470   4.956   1.894 -1.0872 -0.5696  1.0950
20960SOL    HW264322   5.514   5.076   1.812  2.1526 -1.3667  1.5184
20961SOL     OW64323   0.883   0.033   5.733 -0.6838  0.4130 -0.3131
20961SOL    HW164324   0.965   0.031   5.783 -2.0326  1.1647  2.1052
20961SOL    HW264325   0.841  -0.050   5.753 -1.5995  1.0539  0.5145
20962SOL     OW64326   3.551   3.709  11.026 -0.4406 -0.1118  0.4698
20962SOL    HW164327   3.530   3.631  11.076 -0.2875 -1.6893 -1.7850
20962SOL    HW264328   3.469   3.733  10.983  0.2600 -1.0752 -1.4831
20963SOL     OW64329   2.601   2.753   6.694 -0.2162  0.5008  0.1852
20963SOL    HW164330   2.594   2.657   6.698  0.8868  0.3935 -0.0511
20963SOL    HW264331   2.572   2.776   6.606  1.3157  0.1735 -0.4434
20964SOL     OW64332   7.609   7.509   3.554  0.3357  0.5455  0.4192
20964SOL    HW164333   7.627   7.471   3.640 -0.0563 -0.9065 -0.1117
20964SOL    HW264334   7.692   7.506   3.508 -0.0875 -1.5603 -0.3018
20965SOL     OW64335   0.691   5.866   9.208  0.0551 -0.2818 -0.1536
20965SOL    HW164336   0.715   5.814   9.131  0.1318  0.2264 -0.4767
20965SOL    HW264337   0.729   5.819   9.282 -0.9318 -1.3653 -0.3056
20966SOL     OW64338   0.965   2.409   5.194  1.0458 -0.1114  0.0924
20966SOL    HW164339   0.933   2.450   5.113  0.6864  0.4468  0.5120
20966SOL    HW264340   1.011   2.480   5.240 -0.4294  0.1058  1.2876
20967SOL     OW64341   2.681   1.451   0.898 -0.1748 -0.0030 -0.0379
20967SOL    HW164342   2.766   1.446   0.853 -0.4820 -0.6062 -0.5770
20967SOL    HW264343   2.637   1.525   0.857 -1.0058 -1.3869 -1.7665
20968SOL     OW64344   5.612   7.844   4.630  0.2348  0.2094 -0.1015
20968SOL    HW164345   5.684   7.858   4.692 -0.2612  0.1908  0.4914
20968SOL    HW264346   5.631   7.760   4.589  0.9516  0.5621 -0.5098
20969SOL     OW64347   2.613   2.530   0.659 -0.7064  0.1786 -0.5605
20969SOL    HW164348   2.647   2.613   0.624 -1.2974  0.5326 -0.3032
20969SOL    HW264349   2.661   2.518   0.742 -1.8408  1.1448  0.2602
20970SOL     OW64350   3.613   6.127   9.618 -0.0775 -0.0409  0.0762
20970SOL    HW164351   3.606   6.196   9.684  2.4085 -0.8176  1.3009
20970SOL    HW264352   3.618   6.174   9.535  0.5207  1.2227  0.7871
20971SOL     OW64353   7.596   3.480   1.474  0.1259 -0.1349 -0.2794
20971SOL    HW164354   7.621   3.540   1.545 -1.4118 -1.2325  1.2793
20971SOL    HW264355   7.665   3.490   1.409  1.8024  0.7039  1.5164
20972SOL     OW64356   7.450   0.411   0.741  0.0986  0.3546 -0.6274
20972SOL    HW164357   7.534   0.388   0.781  0.6356  1.3650 -1.1220
20972SOL    HW264358   7.385   0.364   0.793  0.6619  2.2809  2.0732
20973SOL     OW64359   4.629   4.813   0.248  0.2173 -0.0814 -0.2325
20973SOL    HW164360   4.549   4.763   0.265  0.8247 -1.0178 -0.0135
20973SOL    HW264361   4.693   4.779   0.311  0.3271  1.8558  0.7832
20974SOL     OW64362   6.981   1.104   3.031 -0.1824  0.0044 -0.5496
20974SOL    HW164363   6.970   1.103   3.127 -1.8668 -1.6464 -0.7125
20974SOL    HW264364   7.076   1.114   3.018 -0.1271  3.2461  1.2049
20975SOL     OW64365   6.614   7.195   1.119 -0.3511 -0.1266  0.1719
20975SOL    HW164366   6.523   7.223   1.113 -0.6059 -0.7081  1.0501
20975SOL    HW264367   6.660   7.245   1.051 -1.1641  0.8188  0.3014
20976SOL     OW64368   2.056   0.039   0.853  0.1558 -0.6261  0.1843
20976SOL    HW164369   2.144   0.038   0.815  0.4889 -3.3199  0.8414
20976SOL    HW264370   2.064   0.092   0.932  0.7798  0.3771 -0.5184
20977SOL     OW64371   3.533   2.136  11.759  0.2525  0.2669  0.4098
20977SOL    HW164372   3.506   2.067  11.699  2.5888  0.1531 -0.6129
20977SOL    HW264373   3.589   2.092  11.822  3.1708  1.3701 -1.2361
20978SOL     OW64374   6.922   4.009   2.855  0.9098  0.5590 -0.1178
20978SOL    HW164375   6.855   4.068   2.889  1.1588 -0.3303  2.0666
20978SOL    HW264376   6.981   3.994   2.929  2.4959 -0.1386 -1.4502
20979SOL     OW64377   0.785   1.844   1.636 -0.1166  0.1038 -0.0212
20979SOL    HW164378   0.803   1.830   1.543 -1.4408  1.2724 -0.4829
20979SOL    HW264379   0.743   1.929   1.640 -1.9161 -0.7837  1.4109
20980SOL     OW64380   5.049   6.031   3.855  0.2171  0.1811 -0.1742
20980SOL    HW164381   5.006   5.980   3.923  0.5099  0.0457 -0.0891
20980SOL    HW264382   5.094   6.101   3.902 -3.1009  2.8124 -0.4490
20981SOL     OW64383   7.424   5.978   7.461 -0.0366  0.0997  0.1147
20981SOL    HW164384   7.356   6.018   7.407 -0.4125 -0.8155 -0.1131
20981SOL    HW264385   7.445   6.044   7.527 -1.4509  0.2338  0.4530
20982SOL     OW64386   0.359   6.852   9.023  0.7093 -0.1784  0.0326
20982SOL    HW164387   0.266   6.872   9.017  0.2441 -1.6432  1.6559
20982SOL    HW264388   0.374   6.786   8.955  0.7573  0.6328 -0.7578
20983SOL     OW64389   6.893   0.764   7.202  0.2270 -0.3902 -0.2131
20983SOL    HW164390   6.817   0.762   7.145 -0.0917 -0.5238  0.2091
20983SOL    HW264391   6.938   0.681   7.185 -1.4796 -1.8597  1.8590
20984SOL     OW64392   2.057   6.433   4.009  0.1020  0.2175  0.4855
20984SOL    HW164393   1.997   6.507   4.017 -1.1319 -0.8875  2.3622
20984SOL    HW264394   2.072   6.425   3.915 -2.5914  0.6838 -0.0784
20985SOL     OW64395   4.055   1.864   8.055 -0.5281 -0.2939 -0.8795
20985SOL    HW164396   4.015   1.803   8.118 -1.3460  0.3467 -0.7659
20985SOL    HW264397   3.981   1.912   8.018  0.2062  2.0317  0.4784
20986SOL     OW64398   0.081   0.203  11.054  0.0513 -0.2098 -0.2373
20986SOL    HW164399   0.095   0.269  10.986  0.2971  2.6797  2.3847
20986SOL    HW264400  -0.014   0.200  11.066  0.0567 -0.1019 -0.1641
20987SOL     OW64401   7.339   2.275  11.131  0.2174  0.0492  0.1792
20987SOL    HW164402   7.406   2.340  11.150 -0.6431  0.7146  1.0251
20987SOL    HW264403   7.306   2.298  11.044  1.2677 -0.4570 -0.3621
20988SOL     OW64404   2.251   1.159   8.760  0.3100 -0.1964  0.0177
20988SOL    HW164405   2.277   1.107   8.685 -0.6671 -1.5922  0.5877
20988SOL    HW264406   2.330   1.169   8.812  1.1973  1.5397 -1.5855
20989SOL     OW64407   5.321   7.611   0.084  0.2112  0.1876 -0.2351
20989SOL    HW164408   5.347   7.602  -0.008  0.9743 -0.7990  0.0649
20989SOL    HW264409   5.233   7.649   0.080  0.7062  1.3115 -1.3374
20990SOL     OW64410   3.327   3.669   9.768 -0.6094 -0.2586 -0.1091
20990SOL    HW164411   3.374   3.727   9.709  0.1197 -1.6557 -0.9766
20990SOL    HW264412   3.386   3.595   9.781 -1.0500 -0.3271  1.8424
20991SOL     OW64413   6.636   3.790   4.482 -0.6440 -0.0613  0.4665
20991SOL    HW164414   6.563   3.788   4.420  0.2137 -2.1925 -0.5870
20991SOL    HW264415   6.634   3.703   4.522  0.4231  0.3806  1.5015
20992SOL     OW64416   2.872   5.850   9.665  0.0683 -0.1121 -0.3338
20992SOL    HW164417   2.806   5.823   9.601 -1.2098  0.3139  0.7576
20992SOL    HW264418   2.821   5.889   9.736  1.6265  1.8882 -0.2590
20993SOL     OW64419   1.310   7.671   4.798 -0.5788 -0.5601  0.0375
20993SOL    HW164420   1.379   7.610   4.770 -1.0674 -0.7867 -0.7102
20993SOL    HW264421   1.276   7.707   4.716 -1.3135 -0.4132  0.4022
20994SOL     OW64422   2.802   6.813   6.509  0.2637  0.1798 -0.1968
20994SOL    HW164423   2.816   6.898   6.468 -2.4149  0.5537 -0.5332
20994SOL    HW264424   2.864   6.810   6.581  1.1399  1.9539 -0.8316
20995SOL     OW64425   1.061   4.905   5.583 -0.1828  0.1810  0.0270
20995SOL    HW164426   1.057   4.815   5.616 -0.1792 -0.2690 -1.1393
20995SOL    HW264427   1.012   4.957   5.647  1.6916 -0.2455  1.9469
20996SOL     OW64428   5.488   7.658   8.991 -0.0558  0.7891 -0.7271
20996SOL    HW164429   5.457   7.744   8.964  0.1907  1.4612  1.0409
20996SOL    HW264430   5.424   7.627   9.055  0.2338 -0.0401 -0.8198
20997SOL     OW64431   0.060   0.018   1.514  0.1158 -0.1736 -0.4653
20997SOL    HW164432   0.026  -0.058   1.561 -0.4452 -0.2012 -0.9062
20997SOL    HW264433  -0.007   0.086   1.527  1.1703  0.6481  0.9531
20998SOL     OW64434   0.182   6.089   4.235 -0.2915 -0.0734 -0.1010
20998SOL    HW164435   0.158   5.997   4.246 -2.5294  0.4497 -0.0827
20998SOL    HW264436   0.227   6.093   4.151  0.1814 -1.2232  0.0828
20999SOL     OW64437   2.642   7.383   8.233 -0.1196  0.0764  0.0971
20999SOL    HW164438   2.551   7.356   8.228 -0.3248  0.4609  1.4799
20999SOL    HW264439   2.678   7.332   8.306  0.9231 -0.4628 -0.7573
21000SOL     OW64440   3.085   1.405   3.243  0.3166  0.5814  0.5931
21000SOL    HW164441   3.049   1.350   3.174  1.7223  0.1768  0.1462
21000SOL    HW264442   3.071   1.494   3.212  0.5819  0.4104 -0.0385
21001SOL     OW64443   3.086   5.040   1.955 -0.1757  0.7622  0.2388
21001SOL    HW164444   3.112   5.014   1.867  1.9959 -0.4736  1.1687
21001SOL    HW264445   3.036   4.965   1.988  0.0564  0.7095  0.4729
21002SOL     OW64446   6.569   5.558   7.164 -0.2116 -0.5400  0.2559
21002SOL    HW164447   6.548   5.465   7.156 -1.5065 -0.2077 -0.4752
21002SOL    HW264448   6.582   5.588   7.074 -0.9709  0.2271  0.3845
21003SOL     OW64449   4.491   0.445  11.855 -1.1139 -0.0423  0.7654
21003SOL    HW164450   4.451   0.459  11.769  0.0095 -0.5754  0.1211
21003SOL    HW264451   4.580   0.415  11.834 -0.5703  0.5580  2.1235
21004SOL     OW64452   1.742   4.740   9.268  0.0546  0.1387 -0.3610
21004SOL    HW164453   1.683   4.684   9.320 -0.5213  0.5656 -0.5563
21004SOL    HW264454   1.692   4.819   9.251  1.6813  1.8277  2.0138
21005SOL     OW64455   6.041   6.001   0.389 -0.1667 -0.3153 -0.2445
21005SOL    HW164456   6.013   6.050   0.312  0.5872  1.1685  0.3830
21005SOL    HW264457   6.009   6.052   0.464  0.4896 -0.8585  0.4325
21006SOL     OW64458   4.150   5.727   2.710  0.4488  0.1660 -0.4563
21006SOL    HW164459   4.204   5.650   2.725  0.7454  0.4549 -0.0057
21006SOL    HW264460   4.079   5.696   2.654 -1.4825 -1.3394  2.5444
21007SOL     OW64461   3.747   4.595   2.509 -0.3046 -0.3560 -0.0641
21007SOL    HW164462   3.752   4.536   2.434 -0.1591  0.5928 -0.8243
21007SOL    HW264463   3.653   4.614   2.518 -0.4926 -1.6062  0.9344
21008SOL     OW64464   1.224   2.257   9.263 -0.0943  0.1421 -0.2474
21008SOL    HW164465   1.180   2.211   9.191  0.4336  0.3511 -0.7072
21008SOL    HW264466   1.285   2.192   9.299 -0.2313  0.0936 -0.1031
21009SOL     OW64467   2.017   0.974  11.549 -0.2330  0.3562 -0.3003
21009SOL    HW164468   2.003   0.883  11.574  1.7902 -0.4809 -1.9309
21009SOL    HW264469   2.077   1.008  11.615 -1.1050  0.5833  0.3942
21010SOL     OW64470   0.983   0.513   4.050  0.2161 -0.1850  0.1652
21010SOL    HW164471   1.023   0.575   3.989 -1.2869 -2.3182 -3.3360
21010SOL    HW264472   1.056   0.459   4.081  0.8589 -0.2924 -1.4240
21011SOL     OW64473   5.931   7.172   9.636  0.0139 -0.1463 -0.3773
21011SOL    HW164474   5.939   7.266   9.620 -0.7391 -0.3016 -1.8019
21011SOL    HW264475   5.837   7.157   9.644  0.1680 -0.6785  0.6140
21012SOL     OW64476   6.297   3.990   1.149 -0.0911 -0.2328  0.5378
21012SOL    HW164477   6.258   3.925   1.090 -0.4829  1.1657 -0.8335
21012SOL    HW264478   6.222   4.035   1.188  0.1707 -0.0173  0.7943
21013SOL     OW64479   2.877   4.582   9.004  0.2973 -0.0810 -0.6426
21013SOL    HW164480   2.875   4.548   9.093  0.6435  0.1872 -0.5317
21013SOL    HW264481   2.910   4.510   8.951  1.1436  0.1168 -0.3922
21014SOL     OW64482   0.881   7.878  12.167  0.5971 -0.5733  0.4408
21014SOL    HW164483   0.936   7.951  12.138 -1.9741  0.7077 -1.6100
21014SOL    HW264484   0.927   7.800  12.138  0.6396  0.5080 -2.7610
21015SOL     OW64485   1.522   3.566   5.775 -0.4029  0.3408 -0.1314
21015SOL    HW164486   1.510   3.595   5.866 -1.6177  2.1458 -0.7969
21015SOL    HW264487   1.567   3.482   5.782  0.7014  1.0216  2.0924
21016SOL     OW64488   7.011   6.119   2.012  0.4741 -0.2999  0.2530
21016SOL    HW164489   7.054   6.125   1.927  2.2232 -0.9645  1.0431
21016SOL    HW264490   6.973   6.031   2.013 -0.6344  0.1510 -0.2951
21017SOL     OW64491   7.906   1.209   4.308 -0.1646  0.3801 -0.4007
21017SOL    HW164492   7.879   1.121   4.335  0.6482 -0.0037 -0.8029
21017SOL    HW264493   7.830   1.245   4.262 -0.9890  0.4225  0.9412
21018SOL     OW64494   1.868   0.614   5.418  0.7491  0.6518  0.4044
21018SOL    HW164495   1.849   0.707   5.411  0.0890  0.5189  0.3752
21018SOL    HW264496   1.791   0.576   5.460  0.2471 -0.1390 -1.1506
21019SOL     OW64497   1.493   1.660  11.439 -0.7721 -0.0553  0.3068
21019SOL    HW164498   1.478   1.678  11.532  0.6559  2.4093  0.1520
21019SOL    HW264499   1.458   1.572  11.426 -0.5282 -0.7164  3.3042
21020SOL     OW64500   7.042   7.816   4.902 -0.2203  0.4140  0.1602
21020SOL    HW164501   6.972   7.817   4.836 -0.9527  1.1472  0.9155
21020SOL    HW264502   7.107   7.755   4.867 -0.9238  0.2280 -0.8871
21021SOL     OW64503   3.168   6.609  10.866 -0.0655  0.2522 -0.0589
21021SOL    HW164504   3.240   6.671  10.880  0.1042 -0.0473  0.3940
21021SOL    HW264505   3.205   6.524  10.888 -0.8890  0.2254  1.2827
21022SOL     OW64506   3.812   1.449   3.794  0.1533  0.2332  0.6865
21022SOL    HW164507   3.746   1.431   3.727 -0.8258  2.1264  1.0737
21022SOL    HW264508   3.889   1.399   3.766 -1.4175 -2.0551  0.2462
21023SOL     OW64509   7.295   4.565   6.341 -0.3346 -0.5576  0.0154
21023SOL    HW164510   7.304   4.487   6.286 -2.2108 -0.0504 -1.1077
21023SOL    HW264511   7.220   4.546   6.397 -0.3227  0.1335  0.2648
21024SOL     OW64512   6.076   2.480   4.550  0.4872  0.6133  0.1392
21024SOL    HW164513   6.043   2.392   4.530  0.5682  0.4514  0.6817
21024SOL    HW264514   6.130   2.467   4.629  0.4727  1.1569  0.2398
21025SOL     OW64515   7.780   7.010   4.283  0.8826 -0.3823 -0.4145
21025SOL    HW164516   7.801   6.929   4.330  1.0777  0.0244  0.2144
21025SOL    HW264517   7.685   7.020   4.294  0.9781 -0.1208  0.1624
21026SOL     OW64518   0.662   7.896   5.095  0.3181  0.0454  0.1367
21026SOL    HW164519   0.655   7.885   5.001  0.5863 -2.5380  0.3684
21026SOL    HW264520   0.572   7.894   5.127  0.3299 -1.0628  0.1114
21027SOL     OW64521   2.802   1.107   7.166 -0.0201  0.5193  0.4881
21027SOL    HW164522   2.800   1.128   7.073 -1.3136 -2.6765 -0.3659
21027SOL    HW264523   2.894   1.114   7.190  0.4649  0.6537 -1.2433
21028SOL     OW64524   1.861   1.800   1.024  0.0601 -0.1779  0.0990
21028SOL    HW164525   1.766   1.792   1.033  0.0915  0.5223  1.3094
21028SOL    HW264526   1.894   1.711   1.040 -0.3045 -0.0959  1.4285
21029SOL     OW64527   7.325   2.493   7.685 -0.1738  0.2643  0.1632
21029SOL    HW164528   7.301   2.511   7.594 -2.5191  2.7725  1.1306
21029SOL    HW264529   7.362   2.575   7.717 -0.5398 -0.1569  1.7816
21030SOL     OW64530   2.041   7.219   2.476  0.2107 -0.2346 -0.1649
21030SOL    HW164531   2.004   7.167   2.404 -1.5528 -0.0272  0.5365
21030SOL    HW264532   2.069   7.154   2.541  2.0783 -0.4368 -1.0987
21031SOL     OW64533   1.994   2.833   5.387  0.5665 -0.7439 -0.1865
21031SOL    HW164534   1.919   2.831   5.328  0.7773  0.6434 -0.5500
21031SOL    HW264535   2.065   2.870   5.334  1.8727 -3.0686 -0.2048
21032SOL     OW64536   7.229   2.275   1.799  0.1613  0.2620  0.2764
21032SOL    HW164537   7.222   2.312   1.711 -1.8461  0.4034  0.4366
21032SOL    HW264538   7.206   2.183   1.788  0.7647  0.0796  0.5264
21033SOL     OW64539   7.409   2.108   8.671 -0.5196 -0.1159 -0.0148
21033SOL    HW164540   7.433   2.199   8.690 -0.6447 -0.3771  1.4757
21033SOL    HW264541   7.318   2.101   8.700 -0.1435 -1.0221  1.0075
21034SOL     OW64542   5.321   3.568  12.030  0.4041  0.3129 -0.5384
21034SOL    HW164543   5.376   3.596  12.103 -0.8901 -0.5805  0.8176
21034SOL    HW264544   5.375   3.504  11.983  0.8388  0.0739  0.2707
21035SOL     OW64545   0.831   3.801  11.051  0.4896  0.4214  0.4282
21035SOL    HW164546   0.858   3.893  11.059 -0.1999  0.5453  1.5764
21035SOL    HW264547   0.785   3.797  10.967  1.4054  0.8869 -0.1102
21036SOL     OW64548   3.941   3.220  10.144  0.6262  0.0981 -0.0695
21036SOL    HW164549   3.974   3.285  10.081  0.2802 -0.0835 -0.4402
21036SOL    HW264550   3.932   3.269  10.226 -1.0194  0.9002 -0.6946
21037SOL     OW64551   5.005   6.766   2.861 -0.1108 -0.2859 -0.7955
21037SOL    HW164552   5.070   6.823   2.819 -1.7330  0.8598 -1.9256
21037SOL    HW264553   5.048   6.681   2.868  2.5378  1.0662  1.2495
21038SOL     OW64554   7.046   1.947   9.168 -0.1808 -0.0359  0.6585
21038SOL    HW164555   7.054   1.975   9.259  1.1716  0.7806  0.3236
21038SOL    HW264556   7.063   1.853   9.170  1.9445  0.2956  1.0609
21039SOL     OW64557   7.600   0.290   5.756  0.4504  0.1858 -0.1457
21039SOL    HW164558   7.511   0.269   5.785  0.2301  0.8874 -0.3060
21039SOL    HW264559   7.649   0.209   5.772 -0.5868 -0.7935 -1.5962
21040SOL     OW64560   1.957   3.055  11.791  0.4720  0.1129  0.0304
21040SOL    HW164561   2.007   3.099  11.860  2.0770 -1.4614 -0.0317
21040SOL    HW264562   2.020   3.047  11.718  0.6118 -2.9716  0.3586
21041SOL     OW64563   0.694   4.259   8.665 -0.1149 -0.4641 -0.1840
21041SOL    HW164564   0.603   4.230   8.670 -0.7191  1.2743 -0.6014
21041SOL    HW264565   0.693   4.333   8.605  1.3568  0.4047  0.7959
21042SOL     OW64566   3.424   2.667  10.958 -0.1172  0.3195  0.0231
21042SOL    HW164567   3.356   2.609  10.993 -0.1553 -0.2658 -0.9829
21042SOL    HW264568   3.506   2.620  10.973 -0.0780  0.3338 -0.1437
21043SOL     OW64569   1.411   4.202   3.911  0.0645 -0.0510  0.1935
21043SOL    HW164570   1.444   4.114   3.929  0.7320 -0.2189 -1.6579
21043SOL    HW264571   1.475   4.261   3.951  0.4234 -0.3982  0.1347
21044SOL     OW64572   1.121   0.953   1.435  0.1044  0.0511 -0.5251
21044SOL    HW164573   1.164   0.957   1.520  0.6956 -0.0346 -0.8173
21044SOL    HW264574   1.067   0.874   1.439 -0.8033  0.6793  0.1964
21045SOL     OW64575   1.920   5.861   9.678 -0.1402  0.0156 -0.0852
21045SOL    HW164576   1.923   5.773   9.715  1.4738 -0.6141 -1.5862
21045SOL    HW264577   1.959   5.917   9.746  1.1128 -0.8313 -0.0677
21046SOL     OW64578   3.253   6.909   6.272 -0.3210 -0.4604  0.0547
21046SOL    HW164579   3.297   6.992   6.259 -1.7364  0.3491  0.2125
21046SOL    HW264580   3.169   6.918   6.227 -0.5160 -1.7946  0.0884
21047SOL     OW64581   1.114   0.384   2.591 -0.1903  0.1212  0.1131
21047SOL    HW164582   1.156   0.314   2.541 -1.5250 -0.5229 -0.1560
21047SOL    HW264583   1.034   0.345   2.625  0.0425  0.9452  1.6839
21048SOL     OW64584   1.706   1.994   9.240 -0.1487 -0.1170 -0.5549
21048SOL    HW164585   1.706   1.899   9.248 -0.2613 -0.5228 -4.0313
21048SOL    HW264586   1.636   2.023   9.299 -0.6370 -2.2336 -0.0339
21049SOL     OW64587   1.968   5.787  11.491 -0.2042  0.3266 -0.1554
21049SOL    HW164588   1.894   5.729  11.473 -0.0645 -0.3379  1.2362
21049SOL    HW264589   1.929   5.864  11.532 -0.0270 -0.8636  2.4292
21050SOL     OW64590   1.440   2.469   1.372 -0.0116  0.8052 -0.1088
21050SOL    HW164591   1.499   2.545   1.366  1.8371 -0.5813 -0.3950
21050SOL    HW264592   1.439   2.447   1.465  0.1473  0.6906 -0.1320
21051SOL     OW64593   3.364   7.010  10.543 -0.2263  0.1450 -0.4835
21051SOL    HW164594   3.419   6.932  10.536 -0.4967  0.0746 -2.1229
21051SOL    HW264595   3.292   6.994  10.483 -2.0453  0.2940  1.5214
21052SOL     OW64596   7.591   0.854  10.061  0.0359 -0.1061  0.3328
21052SOL    HW164597   7.574   0.760  10.062  0.5643 -0.2242 -0.6932
21052SOL    HW264598   7.508   0.894  10.086 -0.4361 -0.8176 -0.0782
21053SOL     OW64599   6.786   6.272   3.336  0.3140  0.1996  0.1363
21053SOL    HW164600   6.747   6.358   3.351 -1.1046 -0.3718 -0.1307
21053SOL    HW264601   6.722   6.210   3.371  1.4654 -0.7571  0.6369
21054SOL     OW64602   7.329   4.798   1.370  0.0370 -0.0902 -0.5614
21054SOL    HW164603   7.402   4.822   1.426  1.6703  0.6563 -2.8386
21054SOL    HW264604   7.314   4.705   1.389 -0.3986  0.4284  1.9731
21055SOL     OW64605   2.590   6.567   5.135  0.6231 -0.5071  0.6622
21055SOL    HW164606   2.641   6.487   5.122  4.0046  1.7797 -1.7192
21055SOL    HW264607   2.630   6.609   5.210  1.2515  0.5383 -0.2269
21056SOL     OW64608   0.475   2.058   2.889  0.3420  0.2258 -0.3322
21056SOL    HW164609   0.530   2.023   2.958  1.2597 -1.1650 -1.7001
21056SOL    HW264610   0.423   2.127   2.931  0.2260 -1.1504  1.9051
21057SOL     OW64611   3.224   7.188   7.090  0.5775  0.0533  0.0532
21057SOL    HW164612   3.182   7.167   7.007  0.0942 -1.0956  0.5695
21057SOL    HW264613   3.318   7.183   7.071  0.4773  0.6940 -0.6351
21058SOL     OW64614   5.079   2.741   1.199  0.1255 -0.4366  0.6202
21058SOL    HW164615   5.079   2.759   1.105 -1.7514 -1.6749  0.3291
21058SOL    HW264616   5.122   2.817   1.238  0.6933  0.2281 -1.2123
21059SOL     OW64617   6.958   1.599   7.943 -0.7127 -0.3291  0.0025
21059SOL    HW164618   6.978   1.520   7.892  0.9560 -1.0704  1.6917
21059SOL    HW264619   6.881   1.575   7.994  1.3056 -1.9807  2.5339
21060SOL     OW64620   6.616   3.904   4.872  0.6084 -0.2902  0.1488
21060SOL    HW164621   6.567   3.985   4.858  0.4184 -0.5205 -0.5735
21060SOL    HW264622   6.571   3.839   4.817  0.5712 -0.9601  0.9590
21061SOL     OW64623   5.128   4.998   9.083 -0.1819 -0.4632 -0.0652
21061SOL    HW164624   5.089   4.913   9.103  1.8740 -1.4844 -0.1056
21061SOL    HW264625   5.167   4.987   8.997  1.1363  0.1155  0.4336
21062SOL     OW64626   1.985   3.762   6.836  0.8516 -0.2235  0.1891
21062SOL    HW164627   2.008   3.802   6.921 -1.6174  1.0681  0.3456
21062SOL    HW264628   1.961   3.672   6.858 -0.1575  0.2139  0.9657
21063SOL     OW64629   5.903   2.535   7.931 -0.0119  0.2296 -0.4551
21063SOL    HW164630   5.973   2.484   7.973  0.7573  0.6634 -1.1886
21063SOL    HW264631   5.948   2.608   7.888 -0.8280  0.1069 -1.5714
21064SOL     OW64632   7.414   4.716   9.157 -0.1126  0.4118  0.2779
21064SOL    HW164633   7.384   4.778   9.223 -1.2741  0.5567 -0.3585
21064SOL    HW264634   7.373   4.633   9.183 -0.1976  0.3660 -0.0025
21065SOL     OW64635   2.435   1.853   3.777  0.6937  0.0647 -0.1194
21065SOL    HW164636   2.404   1.855   3.868  0.2048 -0.5506 -0.2629
21065SOL    HW264637   2.509   1.914   3.776  0.2595  0.6238  0.5241
21066SOL     OW64638   7.807   5.053   9.645 -0.1854 -0.5121 -0.4514
21066SOL    HW164639   7.818   5.050   9.740 -0.3451 -0.9968 -0.4483
21066SOL    HW264640   7.769   5.139   9.628  1.6662  0.4005 -0.2713
21067SOL     OW64641   4.173   0.099  10.970  0.0067  0.6153 -0.3443
21067SOL    HW164642   4.134   0.132  11.052  0.5778 -1.3199  0.7685
21067SOL    HW264643   4.108   0.120  10.903 -1.0223  1.2189  0.7832
21068SOL     OW64644   2.604   6.857   9.562 -0.1452  0.2687  0.3420
21068SOL    HW164645   2.700   6.852   9.558 -0.2049 -0.2328 -0.8153
21068SOL    HW264646   2.585   6.859   9.656  0.8827 -2.5713  0.7058
21069SOL     OW64647   4.228   1.553   7.011  0.2279 -0.1365  0.1561
21069SOL    HW164648   4.311   1.584   6.975  0.1727 -2.1220 -1.9026
21069SOL    HW264649   4.241   1.459   7.023 -1.6739 -0.4600 -0.0801
21070SOL     OW64650   4.758   7.074   1.246  0.0309  0.2735  0.0387
21070SOL    HW164651   4.753   7.168   1.261 -0.6627  0.0908  1.1596
21070SOL    HW264652   4.671   7.041   1.272  0.7403 -0.8395  1.1831
21071SOL     OW64653   3.105   5.318  12.378 -0.5274  0.6808 -0.0306
21071SOL    HW164654   3.163   5.250  12.344  0.8768  1.7804  0.0727
21071SOL    HW264655   3.017   5.287  12.358  0.0407 -1.4305  0.5218
21072SOL     OW64656   5.699   4.985   2.761  0.3586 -0.2009  0.2289
21072SOL    HW164657   5.634   5.035   2.712  2.0741  1.1246 -0.8270
21072SOL    HW264658   5.766   5.049   2.785  2.3097 -1.8033 -0.5697
21073SOL     OW64659   1.012   0.078   8.392 -0.1842  0.1573 -0.4138
21073SOL    HW164660   1.095   0.115   8.422  0.7197 -0.3873 -2.1157
21073SOL    HW264661   0.998   0.002   8.448 -0.2805  1.0424  0.8081
21074SOL     OW64662   2.990   5.815  11.193 -0.7138  0.2446  0.3110
21074SOL    HW164663   3.034   5.894  11.224 -0.8845  0.7757 -0.7644
21074SOL    HW264664   2.920   5.847  11.137 -1.0261 -0.6617  0.1727
21075SOL     OW64665   3.917   6.369   6.690  0.2225  0.1341 -0.1855
21075SOL    HW164666   3.869   6.287   6.692  1.5467 -0.6960 -1.0023
21075SOL    HW264667   3.856   6.432   6.651 -0.5488 -0.6362 -0.2467
21076SOL     OW64668   2.474   5.160   4.773 -0.7641  0.3650 -0.3968
21076SOL    HW164669   2.458   5.206   4.690 -1.0751  0.6983 -0.1566
21076SOL    HW264670   2.414   5.085   4.771  1.4910 -1.5302 -1.9168
21077SOL     OW64671   3.267   1.051  11.229  0.2802 -0.3852 -0.6751
21077SOL    HW164672   3.269   1.073  11.136  1.5984  0.2812 -0.5072
21077SOL    HW264673   3.289   0.958  11.232 -2.5397 -1.1715 -1.1855
21078SOL     OW64674   0.721   6.129  11.977 -0.3873 -0.7105 -0.1311
21078SOL    HW164675   0.737   6.199  11.913 -0.7221  1.0196  1.5954
21078SOL    HW264676   0.627   6.135  11.996 -0.2624 -1.0978  0.6367
21079SOL     OW64677   4.026   3.942   8.020 -0.2391  0.1134 -0.6209
21079SOL    HW164678   3.977   4.019   8.048 -0.4784 -0.0081 -0.7029
21079SOL    HW264679   3.992   3.921   7.933 -1.9990 -1.5761  0.3884
21080SOL     OW64680   3.571   1.736   9.194  0.2814  0.2153 -0.1467
21080SOL    HW164681   3.577   1.804   9.261  1.1404 -1.4592  1.5950
21080SOL    HW264682   3.662   1.709   9.180 -0.0939 -1.0439 -0.2677
21081SOL     OW64683   3.602   6.333   8.112 -0.3414 -0.2902 -0.4452
21081SOL    HW164684   3.564   6.360   8.028 -0.9318  0.5548  0.0847
21081SOL    HW264685   3.560   6.250   8.132 -1.2325  0.1908 -0.3068
21082SOL     OW64686   6.111   5.525   3.269  0.5496 -0.4421  0.4150
21082SOL    HW164687   6.028   5.506   3.224 -0.3469 -1.7787  2.4957
21082SOL    HW264688   6.165   5.448   3.254  0.6472 -0.4302  0.6916
21083SOL     OW64689   0.862   4.785   7.207 -0.4517 -0.1887  0.1692
21083SOL    HW164690   0.905   4.838   7.274  2.0708 -2.5651  0.6202
21083SOL    HW264691   0.894   4.821   7.124  2.9331 -1.9912  0.4811
21084SOL     OW64692   2.513   6.126   0.263 -0.3172 -0.1616 -0.1526
21084SOL    HW164693   2.445   6.060   0.275 -0.7568 -0.6139 -3.7828
21084SOL    HW264694   2.468   6.200   0.222  0.6602  1.3505  1.3710
21085SOL     OW64695   4.495   1.255   0.213 -0.1049 -0.1284 -0.6903
21085SOL    HW164696   4.454   1.340   0.227  0.8624  0.3965 -0.9292
21085SOL    HW264697   4.523   1.257   0.121  1.0740 -0.1813 -0.3428
21086SOL     OW64698   0.529   0.664  10.527  0.2795 -0.3919 -0.0049
21086SOL    HW164699   0.515   0.752  10.562  1.3917 -0.3496  0.3776
21086SOL    HW264700   0.612   0.636  10.566  0.4518 -1.2008 -0.9230
21087SOL     OW64701   1.955   4.965   9.663  0.2823 -0.3019 -0.1069
21087SOL    HW164702   1.908   4.928   9.588  0.9965  0.3391 -0.8801
21087SOL    HW264703   2.047   4.953   9.642  0.5347  1.4859 -0.1770
21088SOL     OW64704   3.173   3.202   0.965  0.2143  0.4121  0.4223
21088SOL    HW164705   3.208   3.120   0.932 -2.9087 -0.7296 -0.3126
21088SOL    HW264706   3.169   3.190   1.060  0.4582  0.0200  0.3821
21089SOL     OW64707   7.235   3.287   5.886 -0.1179 -0.4306 -0.0888
21089SOL    HW164708   7.184   3.365   5.909 -1.8799 -1.2956 -0.9004
21089SOL    HW264709   7.314   3.294   5.940 -0.0604  2.0505 -0.3626
21090SOL     OW64710   0.385   6.015   0.947 -0.3490 -0.3915  0.5734
21090SOL    HW164711   0.420   6.068   1.019  3.5003  0.4214 -1.6094
21090SOL    HW264712   0.447   5.942   0.939 -1.3466 -1.1018 -1.1694
21091SOL     OW64713   5.910   1.644   0.498 -0.0656 -0.4340  0.4798
21091SOL    HW164714   5.878   1.560   0.532 -0.3191  0.4009  2.4679
21091SOL    HW264715   5.838   1.705   0.516  0.6407  0.4751  0.2682
21092SOL     OW64716   3.467   1.925   5.967  0.2562  0.0408  0.0051
21092SOL    HW164717   3.406   1.970   5.909 -0.2388 -0.2162  0.3194
21092SOL    HW264718   3.503   1.994   6.023  1.5925  0.4760 -1.3300
21093SOL     OW64719   3.262   6.046   4.091 -0.4259 -0.4725 -0.0498
21093SOL    HW164720   3.206   6.122   4.077 -0.2000 -0.2498  0.2459
21093SOL    HW264721   3.245   6.019   4.181  0.3019 -0.0992  0.2077
21094SOL     OW64722   4.115   2.242   6.272 -0.2613 -0.3419 -0.9544
21094SOL    HW164723   4.167   2.322   6.287 -0.1790 -0.1566 -2.0964
21094SOL    HW264724   4.169   2.172   6.308  0.3911 -0.0463 -1.3182
21095SOL     OW64725   0.461   4.260   7.607 -0.5337 -0.0305 -0.1924
21095SOL    HW164726   0.373   4.291   7.587  0.0400  1.9513  0.0857
21095SOL    HW264727   0.463   4.255   7.703  0.0668  1.3821 -0.1065
21096SOL     OW64728   6.559   6.629   3.544 -0.2791  0.1012 -0.1602
21096SOL    HW164729   6.593   6.716   3.566 -0.4317 -0.1781  1.2656
21096SOL    HW264730   6.469   6.645   3.515 -0.3241  0.4087  0.1533
21097SOL     OW64731   5.984   5.563  10.488 -0.0210  0.0758 -0.1827
21097SOL    HW164732   5.930   5.486  10.474  0.5299 -0.6609  1.5381
21097SOL    HW264733   5.933   5.635  10.451 -1.2073 -0.8911 -0.4925
21098SOL     OW64734   6.961   4.585   5.388 -0.1587  0.1717 -0.5345
21098SOL    HW164735   6.947   4.650   5.457 -0.2720 -1.3370  0.9281
21098SOL    HW264736   6.992   4.636   5.313 -3.6112  2.3796 -0.6749
21099SOL     OW64737   5.664   1.933   2.711  0.1817 -0.3754 -0.0308
21099SOL    HW164738   5.752   1.964   2.688  0.7695 -0.4488  1.9355
21099SOL    HW264739   5.607   1.979   2.649  1.1467  3.6023  1.6628
21100SOL     OW64740   5.009   7.573   9.050  0.6345 -0.7306  0.2196
21100SOL    HW164741   4.942   7.632   9.015  1.8653  0.0374 -0.9134
21100SOL    HW264742   5.020   7.506   8.982  1.2808 -0.6389  0.2306
21101SOL     OW64743   2.341   2.286   2.666  0.0621  0.3195 -0.1148
21101SOL    HW164744   2.383   2.371   2.669  0.0283  0.3558 -0.7261
21101SOL    HW264745   2.272   2.295   2.601 -0.3568  0.0134  0.2783
21102SOL     OW64746   4.475   5.353   6.371  0.6646  0.2228  0.6336
21102SOL    HW164747   4.515   5.359   6.285 -0.4299 -1.2658 -0.0216
21102SOL    HW264748   4.501   5.267   6.404 -2.0666 -0.9154  0.0795
21103SOL     OW64749   5.466   3.676  10.503 -0.2466  0.0392 -0.0267
21103SOL    HW164750   5.414   3.636  10.573  0.0775 -1.4269 -0.5996
21103SOL    HW264751   5.435   3.635  10.423  0.5979  0.4202 -0.5635
21104SOL     OW64752   5.021   1.792   3.126 -0.3098 -0.4474  0.1789
21104SOL    HW164753   5.068   1.710   3.118  0.7264  0.0850  0.7032
21104SOL    HW264754   4.929   1.766   3.137 -0.6760 -1.4672 -3.7502
21105SOL     OW64755   6.447   1.392  10.845 -0.2858  0.2958  0.0069
21105SOL    HW164756   6.462   1.486  10.844 -1.5414  0.5161 -0.8062
21105SOL    HW264757   6.517   1.356  10.790 -1.8080  1.1618 -2.7084
21106SOL     OW64758   7.008   3.185   2.213  0.6077  0.0281  0.4055
21106SOL    HW164759   7.089   3.217   2.254 -0.8891 -0.2872  3.9549
21106SOL    HW264760   6.938   3.226   2.264 -1.6648  1.6009 -3.5397
21107SOL     OW64761   0.988   4.976   9.453 -0.4215  0.2746  0.2171
21107SOL    HW164762   0.983   5.061   9.496  0.0242  1.1944 -1.4720
21107SOL    HW264763   1.082   4.958   9.446 -0.5057 -0.2074  0.2583
21108SOL     OW64764   2.510   6.562   8.484  0.5832  0.3267  0.2124
21108SOL    HW164765   2.454   6.631   8.518  0.1938  1.3046 -2.2338
21108SOL    HW264766   2.590   6.607   8.457  0.9874 -0.4437  0.0919
21109SOL     OW64767   6.278   3.731   7.453  0.0521  0.9307  0.3018
21109SOL    HW164768   6.274   3.827   7.454 -1.1221  0.8945  0.9898
21109SOL    HW264769   6.187   3.704   7.436  0.4219 -0.0618 -0.1748
21110SOL     OW64770   2.953   6.265   2.554 -0.2184 -0.8573 -0.1696
21110SOL    HW164771   2.948   6.323   2.630  1.1226 -1.2847  0.2586
21110SOL    HW264772   2.868   6.221   2.552  0.1002 -1.6201  1.7033
21111SOL     OW64773   1.578   7.042   6.930 -0.0986  0.3549  0.3087
21111SOL    HW164774   1.493   7.075   6.901  0.0463  0.4911  0.0267
21111SOL    HW264775   1.607   6.986   6.858 -0.4424 -0.5679  0.8777
21112SOL     OW64776   3.657   7.913  11.346 -0.5209 -0.1184 -0.1578
21112SOL    HW164777   3.693   7.828  11.368  0.7204 -0.5383 -3.3530
21112SOL    HW264778   3.654   7.960  11.430 -0.0589 -2.7945  1.4808
21113SOL     OW64779   0.242   5.656   5.176 -0.2040  0.3110  0.3298
21113SOL    HW164780   0.164   5.664   5.233  0.7581  2.5535  1.4835
21113SOL    HW264781   0.212   5.686   5.091 -1.3036 -1.7007 -0.0572
21114SOL     OW64782   0.176   6.285  10.209 -0.1044  0.0091  0.3391
21114SOL    HW164783   0.107   6.315  10.267  0.4328  1.1943  0.3965
21114SOL    HW264784   0.256   6.325  10.243  0.5160 -0.7815 -0.1244
21115SOL     OW64785   7.291   7.295   5.163  0.5358 -0.2077  0.0253
21115SOL    HW164786   7.321   7.315   5.252  0.1703 -0.5413  0.2286
21115SOL    HW264787   7.273   7.381   5.124  1.4235 -0.0163  0.0076
21116SOL     OW64788   6.307   5.224   3.800  0.4876  0.0728 -0.5993
21116SOL    HW164789   6.249   5.161   3.842 -0.5464  0.3022 -1.6186
21116SOL    HW264790   6.249   5.276   3.744  1.6707  0.3530 -1.6130
21117SOL     OW64791   3.892   2.338   4.677  0.3156  0.1915 -0.5128
21117SOL    HW164792   3.836   2.267   4.647  0.8750 -0.0605 -0.9797
21117SOL    HW264793   3.879   2.408   4.613 -1.4787  1.1728  0.8138
21118SOL     OW64794   4.937   5.833  11.333  0.1218 -0.5610  0.1172
21118SOL    HW164795   4.994   5.770  11.289  1.0497 -0.9505  1.7971
21118SOL    HW264796   4.951   5.818  11.426 -1.8309  0.1774  0.5893
21119SOL     OW64797   5.196   4.966   5.213 -0.3929 -0.2659  0.2485
21119SOL    HW164798   5.122   4.979   5.272  0.2627  2.1494  0.6376
21119SOL    HW264799   5.265   4.929   5.269 -0.5618 -0.3351  0.4130
21120SOL     OW64800   7.180   5.075   9.820 -1.2335  0.3990 -0.0625
21120SOL    HW164801   7.086   5.073   9.804 -1.1981 -1.0486 -0.2411
21120SOL    HW264802   7.216   5.010   9.759 -0.1332  0.8782  0.0532
21121SOL     OW64803   0.809   4.453   6.641 -0.3030 -0.1384 -0.0075
21121SOL    HW164804   0.903   4.459   6.656 -0.0514 -0.8195 -1.2073
21121SOL    HW264805   0.770   4.499   6.715  0.9566 -0.1730  0.6963
21122SOL     OW64806   2.458   4.654  11.629  0.0436 -0.0622  0.0531
21122SOL    HW164807   2.489   4.716  11.695  0.2263  0.4507 -0.5041
21122SOL    HW264808   2.404   4.592  11.678 -1.3079  1.3453  0.4364
21123SOL     OW64809   6.450   0.375  11.178 -0.3608  0.3071 -0.1894
21123SOL    HW164810   6.367   0.380  11.227 -0.8573  1.3177 -1.0794
21123SOL    HW264811   6.516   0.409  11.238 -0.7497  0.3509  0.2175
21124SOL     OW64812   7.440   5.226   0.131  0.1877  0.4099  0.0357
21124SOL    HW164813   7.418   5.314   0.160  1.7912  0.5310  1.0062
21124SOL    HW264814   7.532   5.215   0.156  0.0859 -1.4540 -0.2873
21125SOL     OW64815   2.212   7.200   0.588  0.3204 -0.3083  0.0395
21125SOL    HW164816   2.127   7.242   0.575 -0.1701 -1.2257  0.2138
21125SOL    HW264817   2.275   7.261   0.549 -0.2856  0.9224  0.9173
21126SOL     OW64818   1.781   0.104   3.346 -0.0515  0.3157  0.2111
21126SOL    HW164819   1.855   0.070   3.296  0.2746  1.1601  0.0964
21126SOL    HW264820   1.820   0.171   3.403 -0.7014  0.6757  0.2383
21127SOL     OW64821   1.026   6.537  10.771 -0.2475 -0.4693  0.3980
21127SOL    HW164822   1.017   6.454  10.723  0.0754 -0.4966  0.3840
21127SOL    HW264823   1.001   6.604  10.707  0.5197 -0.4788  0.0746
21128SOL     OW64824   7.097   6.496   0.104 -0.6489 -0.5526  0.1532
21128SOL    HW164825   7.045   6.418   0.121 -0.8259 -0.3099  0.7544
21128SOL    HW264826   7.128   6.523   0.190  0.0814 -0.4209 -0.1400
21129SOL     OW64827   2.266   6.817   5.176  0.1556  0.3246  0.2087
21129SOL    HW164828   2.283   6.895   5.229 -0.3676  1.0120 -0.6217
21129SOL    HW264829   2.214   6.848   5.103  2.7084 -0.1511 -1.9649
21130SOL     OW64830   1.564   1.034   7.346  0.5301 -0.0898  0.0572
21130SOL    HW164831   1.563   1.035   7.442 -2.3903 -1.2738  0.1282
21130SOL    HW264832   1.648   0.993   7.324  1.6919  1.0760  2.0318
21131SOL     OW64833   4.019   7.328  10.781 -0.3050 -0.8378  0.1045
21131SOL    HW164834   3.948   7.388  10.803  1.7772  1.6090  0.5723
21131SOL    HW264835   4.056   7.303  10.866  1.0508  0.0930 -0.1866
21132SOL     OW64836   7.300   2.824  11.337 -0.1793 -0.2538  0.0393
21132SOL    HW164837   7.232   2.782  11.285 -0.0207 -1.7002  0.9336
21132SOL    HW264838   7.353   2.751  11.371  0.6292  0.7181  0.9606
21133SOL     OW64839   7.128   7.588   0.197  0.0187  0.2233 -0.1169
21133SOL    HW164840   7.098   7.650   0.131  0.2409 -0.4032 -0.8293
21133SOL    HW264841   7.224   7.599   0.199 -0.0919  1.2636  1.1720
21134SOL     OW64842   2.162   4.135   0.450  0.1147 -0.2010 -0.2738
21134SOL    HW164843   2.187   4.218   0.490 -2.3574 -0.2735  1.6096
21134SOL    HW264844   2.068   4.127   0.466  0.1255 -3.0293 -1.0488
21135SOL     OW64845   3.818   2.936   2.984 -0.4787  0.0648  0.2065
21135SOL    HW164846   3.822   3.008   2.920 -0.5239  0.0215  0.1546
21135SOL    HW264847   3.860   2.971   3.062  0.8783 -0.3576 -0.2990
21136SOL     OW64848   2.681   2.281  11.165 -0.6435 -0.0490 -0.5411
21136SOL    HW164849   2.642   2.364  11.139  0.1920  0.5430  0.0420
21136SOL    HW264850   2.712   2.296  11.254  0.6064 -0.5933 -0.8637
21137SOL     OW64851   0.877   6.427   8.143 -0.1005 -0.2168  0.1416
21137SOL    HW164852   0.901   6.483   8.069  3.4142  0.6264  1.6792
21137SOL    HW264853   0.860   6.341   8.104  0.6604  0.4490 -1.7621
21138SOL     OW64854   2.761   6.752   1.905 -0.8835  0.2061 -0.0915
21138SOL    HW164855   2.792   6.792   1.985 -0.1149  0.5628 -0.5586
21138SOL    HW264856   2.758   6.658   1.924 -0.8150  0.2984  0.3795
21139SOL     OW64857   2.608   4.544   3.354  0.4132  0.2322  0.1655
21139SOL    HW164858   2.643   4.633   3.356  1.3588  0.0093 -2.6276
21139SOL    HW264859   2.629   4.508   3.441 -0.0612  2.7024  1.3891
21140SOL     OW64860   2.395   5.518   1.527 -0.3433  0.2079  0.4827
21140SOL    HW164861   2.313   5.563   1.547 -0.9814 -0.8775  0.3988
21140SOL    HW264862   2.440   5.510   1.611 -1.4316 -1.2877  0.9499
21141SOL     OW64863   4.028   1.971   6.571  0.1522 -0.1861  0.4975
21141SOL    HW164864   3.951   1.920   6.545 -0.5332  0.2933  1.5607
21141SOL    HW264865   4.075   1.913   6.631  0.5254 -0.3919  0.0195
21142SOL     OW64866   7.098   5.735   9.825  0.4186 -0.0880  0.7324
21142SOL    HW164867   7.138   5.813   9.864  0.0572 -0.2820  1.5247
21142SOL    HW264868   7.166   5.697   9.770  0.6663  0.6677  0.5062
21143SOL     OW64869   7.714   7.419   7.287 -0.4727  0.3984 -0.2175
21143SOL    HW164870   7.773   7.460   7.223 -0.8029  0.1026 -0.7162
21143SOL    HW264871   7.632   7.407   7.239 -0.5406 -0.3610  0.0834
21144SOL     OW64872   7.758   4.202   8.480  0.0766 -0.0908  0.9171
21144SOL    HW164873   7.736   4.175   8.391  1.6358  0.4257  0.3518
21144SOL    HW264874   7.833   4.147   8.504  0.4050  0.5871  1.4694
21145SOL     OW64875   7.278   2.423   2.043 -0.4934  0.1818  0.0177
21145SOL    HW164876   7.281   2.377   1.960  1.6913 -0.7766  0.5607
21145SOL    HW264877   7.263   2.354   2.108  0.6980  0.4882  0.6450
21146SOL     OW64878   5.722   0.551   6.011 -0.2023 -0.1717  0.4624
21146SOL    HW164879   5.629   0.559   6.033  0.1374  0.6331  1.7021
21146SOL    HW264880   5.752   0.641   6.001  0.5596 -0.4106  0.5658
21147SOL     OW64881   4.093   3.822   0.584  0.1805 -0.2851 -0.2571
21147SOL    HW164882   4.188   3.811   0.583  0.2623  0.1705  1.0778
21147SOL    HW264883   4.068   3.824   0.491  1.5924  0.5703 -0.6443
21148SOL     OW64884   0.120   5.134   4.849 -0.1141  0.0147  0.0989
21148SOL    HW164885   0.100   5.054   4.896 -1.2015  0.7114  0.8712
21148SOL    HW264886   0.159   5.192   4.915 -2.9756  1.5324  0.6229
21149SOL     OW64887   2.584   5.892   0.978 -0.1056  0.0590  0.1174
21149SOL    HW164888   2.503   5.871   1.024  0.5332 -2.7980  0.1612
21149SOL    HW264889   2.617   5.807   0.948  1.6114  1.3868 -2.0684
21150SOL     OW64890   3.693   3.448  10.767  0.2756  0.2682 -0.0088
21150SOL    HW164891   3.739   3.366  10.778  0.9399  0.4310 -1.3561
21150SOL    HW264892   3.632   3.432  10.695 -0.4548  0.6015  0.5262
21151SOL     OW64893   5.517   7.861   1.878 -0.1027  0.4543  0.0620
21151SOL    HW164894   5.578   7.912   1.825  0.1569  0.7332  0.6167
21151SOL    HW264895   5.561   7.778   1.893  0.8023  1.1678  1.6622
21152SOL     OW64896   7.032   4.419   6.989  0.3585 -0.0767  0.4537
21152SOL    HW164897   7.115   4.414   7.036  0.6033  1.5307  0.2381
21152SOL    HW264898   7.052   4.384   6.902  0.9626  0.7777  0.2339
21153SOL     OW64899   0.019   0.546   1.551 -0.0764 -0.0871 -0.1579
21153SOL    HW164900  -0.004   0.616   1.490 -0.6182  0.1630  0.3208
21153SOL    HW264901   0.014   0.466   1.499  3.5123  0.4209 -1.5274
21154SOL     OW64902   0.554   6.603  12.065  0.4602 -0.0490 -0.1532
21154SOL    HW164903   0.513   6.559  11.991 -0.5285  1.4324 -0.5274
21154SOL    HW264904   0.647   6.607  12.042 -0.0017  1.7419 -2.1233
21155SOL     OW64905   3.280   6.348   0.043 -0.5165 -0.7704 -0.3471
21155SOL    HW164906   3.186   6.338   0.055 -0.4529 -0.5230  0.4443
21155SOL    HW264907   3.314   6.259   0.047 -0.4490 -0.7153  2.0493
21156SOL     OW64908   1.910   0.093   7.924  0.2419  0.2724  0.1002
21156SOL    HW164909   1.896   0.030   7.995  0.6349  0.3546  0.2521
21156SOL    HW264910   1.831   0.086   7.870 -0.1780  0.3884  0.6822
21157SOL     OW64911   6.956   2.417   1.683  0.1306  0.4731  0.2407
21157SOL    HW164912   6.865   2.431   1.710 -0.1447  1.1667 -0.9783
21157SOL    HW264913   6.974   2.487   1.620  1.1379 -0.3367 -0.4202
21158SOL     OW64914   4.348   4.052   9.222  0.4837 -0.3932  0.0847
21158SOL    HW164915   4.391   4.049   9.136  1.4791  0.9351  0.5042
21158SOL    HW264916   4.415   4.020   9.283 -0.1146 -1.0335  0.4106
21159SOL     OW64917   3.136   7.479   7.652  0.2297 -0.3073  0.4965
21159SOL    HW164918   3.164   7.491   7.743  0.5663 -1.1886  0.5259
21159SOL    HW264919   3.041   7.489   7.655  0.2727  0.0337  0.8777
21160SOL     OW64920   2.667   0.519   1.548 -0.3489  0.2123  0.5035
21160SOL    HW164921   2.705   0.520   1.460 -1.7425  1.3733 -0.1201
21160SOL    HW264922   2.575   0.496   1.535 -0.3995 -0.3751  1.7500
21161SOL     OW64923   0.741   1.588  11.125  0.0576  0.2545  0.2122
21161SOL    HW164924   0.669   1.641  11.158 -0.0182  1.4759 -1.7587
21161SOL    HW264925   0.723   1.500  11.157 -2.3319  0.5207 -0.2444
21162SOL     OW64926   6.585   5.143   8.649  0.2060 -0.0701 -0.3817
21162SOL    HW164927   6.600   5.160   8.742  0.5678 -0.6316 -0.3300
21162SOL    HW264928   6.610   5.224   8.605  0.0041  0.2111  0.0066
21163SOL     OW64929   5.441   6.985   3.255 -0.2372 -0.0775 -0.5537
21163SOL    HW164930   5.513   6.922   3.255 -2.4589 -2.9967  2.5870
21163SOL    HW264931   5.408   6.984   3.166  2.0565 -0.4848 -1.4782
21164SOL     OW64932   1.389   0.306   1.227  0.4312  0.0538  0.1445
21164SOL    HW164933   1.367   0.240   1.162  1.2565 -0.4393  0.3471
21164SOL    HW264934   1.484   0.297   1.239  0.4863  0.9744  0.5053
21165SOL     OW64935   0.846   5.570  11.353 -0.4335  0.1364  0.4330
21165SOL    HW164936   0.791   5.525  11.418  1.8581  0.7609  2.9747
21165SOL    HW264937   0.867   5.502  11.289 -1.9372 -0.7766  0.8329
21166SOL     OW64938   2.512   7.680   5.024  0.7743  0.4706 -0.0790
21166SOL    HW164939   2.498   7.613   4.957  0.9546 -0.4302  0.7694
21166SOL    HW264940   2.575   7.741   4.985  1.4515 -0.4473 -0.4479
21167SOL     OW64941   0.793   5.242   1.966 -0.0966 -0.1911 -0.3198
21167SOL    HW164942   0.883   5.212   1.958 -0.1558 -0.6980  0.7213
21167SOL    HW264943   0.740   5.163   1.951 -0.3395 -0.0275 -0.3339
21168SOL     OW64944   1.580   7.605   0.268 -0.5643 -0.1657  0.3317
21168SOL    HW164945   1.509   7.541   0.266 -1.5938  0.8532  2.0412
21168SOL    HW264946   1.557   7.668   0.200  0.7834 -1.8262 -1.8095
21169SOL     OW64947   3.221   2.847   1.850  0.1277  0.2446 -0.1658
21169SOL    HW164948   3.141   2.806   1.885  0.3814  2.0783  2.9564
21169SOL    HW264949   3.195   2.937   1.832  1.7035  1.3336  2.4310
21170SOL     OW64950   3.296   3.039  11.978 -0.3418  0.1271 -0.5262
21170SOL    HW164951   3.377   3.074  11.939  0.6700  1.4688  2.5055
21170SOL    HW264952   3.233   3.110  11.968 -0.7991 -0.4240 -1.7223
21171SOL     OW64953   1.397   5.740   0.394 -0.1854  0.1753  0.4144
21171SOL    HW164954   1.307   5.717   0.418 -0.3428 -0.1181 -0.4194
21171SOL    HW264955   1.441   5.656   0.383 -0.0211  0.3078  0.0434
21172SOL     OW64956   7.644   6.636   3.941  0.5221  0.2594 -0.2372
21172SOL    HW164957   7.714   6.623   3.876 -1.0614 -4.2652 -1.4228
21172SOL    HW264958   7.589   6.704   3.903  3.4537  3.1481  0.1897
21173SOL     OW64959   7.493   1.844   8.708  0.3160  0.0777  0.0705
21173SOL    HW164960   7.569   1.819   8.761 -0.7234 -0.3916  1.3888
21173SOL    HW264961   7.457   1.921   8.753 -0.5052 -0.2458 -0.0277
21174SOL     OW64962   2.139   2.311   3.924  0.2270  0.1493  0.2782
21174SOL    HW164963   2.163   2.402   3.942  0.7455 -0.1310  1.0912
21174SOL    HW264964   2.147   2.302   3.829  0.6034  0.8299  0.2363
21175SOL     OW64965   6.357   2.266   8.095 -0.1458 -0.3092 -0.1249
21175SOL    HW164966   6.400   2.192   8.052  0.7409  1.0041 -1.5750
21175SOL    HW264967   6.426   2.329   8.111 -0.5060 -0.5148  2.9543
21176SOL     OW64968   3.792   7.801   6.021 -0.3586  0.1096 -0.2765
21176SOL    HW164969   3.871   7.839   5.983 -0.0524 -0.0226  0.2157
21176SOL    HW264970   3.726   7.870   6.014  0.2476  0.8424  0.8062
21177SOL     OW64971   3.988   4.352  10.962  0.4739 -0.1107  0.3719
21177SOL    HW164972   4.039   4.358  11.043  1.0787 -0.1023 -0.0108
21177SOL    HW264973   3.902   4.321  10.991 -0.7235  3.7826  1.6193
21178SOL     OW64974   2.318   4.679   0.996  0.0354  0.0776  0.6826
21178SOL    HW164975   2.337   4.725   0.915  0.3921  1.0962  1.3201
21178SOL    HW264976   2.264   4.605   0.970  0.1930  0.3566 -0.4826
21179SOL     OW64977   5.794   2.986   3.408  0.0486 -0.1659 -0.1082
21179SOL    HW164978   5.889   2.989   3.404  0.1934 -0.5101  1.8761
21179SOL    HW264979   5.765   3.015   3.322  1.9486 -1.5388 -1.2912
21180SOL     OW64980   1.994   5.038   1.750 -0.1129 -0.1082 -0.0507
21180SOL    HW164981   2.036   5.062   1.832 -1.3786 -0.2911  0.6868
21180SOL    HW264982   2.004   5.115   1.694 -0.6910  0.6642  0.8783
21181SOL     OW64983   3.046   1.878   9.685 -0.1337  0.5018 -0.4114
21181SOL    HW164984   3.075   1.807   9.742  0.5343  0.7652 -0.4235
21181SOL    HW264985   3.107   1.949   9.701  0.7984  0.1971 -2.3000
21182SOL     OW64986   5.648   2.731   9.125 -0.6772  0.8360  0.2704
21182SOL    HW164987   5.695   2.763   9.203 -1.6718 -0.2619  1.3640
21182SOL    HW264988   5.571   2.786   9.119 -0.8214  0.6404  0.3235
21183SOL     OW64989   0.051   2.319   9.396  0.1091  0.7742  0.8751
21183SOL    HW164990  -0.015   2.381   9.365 -1.4925 -1.5867 -0.7795
21183SOL    HW264991   0.130   2.343   9.349  0.3914  3.3100  2.4717
21184SOL     OW64992   3.500   1.641   7.906  0.0541  0.4218 -0.1108
21184SOL    HW164993   3.538   1.628   7.993 -0.4773  0.7981  0.1795
21184SOL    HW264994   3.566   1.605   7.846  0.9365  1.1824  0.3761
21185SOL     OW64995   5.567   3.102   1.551  0.1809  0.3682  0.2504
21185SOL    HW164996   5.579   3.007   1.560 -0.6034  0.1636 -0.6653
21185SOL    HW264997   5.540   3.131   1.638 -2.1008 -0.6806 -0.0228
21186SOL     OW64998   7.864   3.418   3.835  0.2294  0.2160 -0.2629
21186SOL    HW164999   7.844   3.451   3.747  0.9693 -0.1144 -0.5635
21186SOL    HW265000   7.951   3.378   3.826  0.8757  1.3090  0.9096
21187SOL     OW65001   0.035   7.849   6.580 -0.1123  0.2888 -0.0762
21187SOL    HW165002   0.116   7.805   6.554  0.2505 -0.1607  1.6575
21187SOL    HW265003  -0.025   7.778   6.602 -0.1573  0.6109  0.9198
21188SOL     OW65004   1.073   4.885   4.226  0.2200 -0.0954 -0.2233
21188SOL    HW165005   1.027   4.837   4.295 -0.8290 -0.4935 -1.1679
21188SOL    HW265006   1.015   4.878   4.149 -0.0341  2.7367 -0.3891
21189SOL     OW65007   0.737   5.517   0.778  0.3289 -0.2231 -0.0809
21189SOL    HW165008   0.712   5.425   0.787  0.0600 -0.2553 -1.0365
21189SOL    HW265009   0.676   5.564   0.836 -0.7580 -0.4793 -0.9869
21190SOL     OW65010   0.057   5.341   1.233  0.4270 -0.0130 -0.0284
21190SOL    HW165011   0.021   5.282   1.167 -0.1363 -0.3432  0.5584
21190SOL    HW265012  -0.020   5.380   1.275  0.7811  0.5772  0.0944
21191SOL     OW65013   6.367   2.886   3.604  0.6113 -0.2550 -0.5972
21191SOL    HW165014   6.406   2.973   3.604  2.2665 -0.9434  0.9033
21191SOL    HW265015   6.279   2.899   3.640  1.5904  0.5556  1.6944
21192SOL     OW65016   3.749   6.249   4.794 -0.0265  0.0914  0.1570
21192SOL    HW165017   3.828   6.264   4.846  0.6139  1.3336 -1.1121
21192SOL    HW265018   3.747   6.154   4.782  2.1083  0.1161 -0.9617
21193SOL     OW65019   6.286   4.662   6.506 -0.0013  0.2630  0.2124
21193SOL    HW165020   6.276   4.747   6.547 -2.0784  0.2282 -0.1175
21193SOL    HW265021   6.324   4.606   6.574 -0.0654  1.0606  0.9139
21194SOL     OW65022   5.226   0.996   2.902  0.2401 -0.4792 -0.6853
21194SOL    HW165023   5.177   0.917   2.879 -4.2867  0.4319  3.8864
21194SOL    HW265024   5.207   1.058   2.832 -2.3129 -1.3365 -0.8441
21195SOL     OW65025   1.799   5.946   1.676  0.1315  0.1248 -0.1601
21195SOL    HW165026   1.749   5.877   1.718  0.5746 -1.5731 -2.2480
21195SOL    HW265027   1.844   5.903   1.603  1.8028  2.2827 -0.5253
21196SOL     OW65028   3.706   1.246   5.377 -0.1374  0.4498  0.2932
21196SOL    HW165029   3.638   1.198   5.330  0.4723  0.8111 -1.0124
21196SOL    HW265030   3.683   1.237   5.469 -1.7574  0.2826 -0.1064
21197SOL     OW65031   0.819   7.702   1.357  0.0547 -0.4958 -0.0843
21197SOL    HW165032   0.736   7.749   1.365  0.1655 -0.4560  1.0647
21197SOL    HW265033   0.885   7.768   1.376  0.2197 -1.0374  1.4113
21198SOL     OW65034   1.871   5.903   4.378  0.3828 -0.4095 -0.7317
21198SOL    HW165035   1.929   5.829   4.358  0.3775 -1.4747  2.5739
21198SOL    HW265036   1.783   5.868   4.368  0.3731 -0.5771 -0.0801
21199SOL     OW65037   7.724   0.256   2.017  0.4619 -0.0885  0.1120
21199SOL    HW165038   7.816   0.231   2.007  0.9650  1.6559 -0.1122
21199SOL    HW265039   7.713   0.274   2.110  0.6559  0.6937 -0.0054
21200SOL     OW65040   5.731   0.667  10.196 -0.3058 -0.1125 -0.1054
21200SOL    HW165041   5.707   0.597  10.257  0.6187  0.5626  1.0842
21200SOL    HW265042   5.822   0.688  10.219 -0.0428  0.3917 -1.5153
21201SOL     OW65043   1.065   2.176   1.705  0.4801 -0.0833 -0.2660
21201SOL    HW165044   1.087   2.229   1.628  1.3968  0.6753  0.4841
21201SOL    HW265045   0.970   2.166   1.701  0.4006  0.7778 -0.9711
21202SOL     OW65046   6.457   0.938   5.412  0.7825  0.2151 -0.0363
21202SOL    HW165047   6.432   0.920   5.321  1.2786  1.3236 -0.4109
21202SOL    HW265048   6.471   1.032   5.414  1.0623  0.1591  1.1337
21203SOL     OW65049   1.447   2.187  11.734 -0.0871 -0.7967  0.7580
21203SOL    HW165050   1.358   2.219  11.750 -0.2297 -0.4688 -0.6251
21203SOL    HW265051   1.435   2.096  11.706  0.0444 -0.8762  0.9561
21204SOL     OW65052   0.374   5.027   9.420 -0.2424 -0.0935  0.0357
21204SOL    HW165053   0.401   4.957   9.360 -0.5884  0.2290 -0.5031
21204SOL    HW265054   0.449   5.085   9.425 -0.0559 -0.3488  0.2615
21205SOL     OW65055   7.248   7.661   8.567 -0.5059 -0.5170  0.6372
21205SOL    HW165056   7.265   7.607   8.644 -0.0891  0.1857  1.0402
21205SOL    HW265057   7.167   7.625   8.530 -0.0669 -1.6254  0.7104
21206SOL     OW65058   5.427   2.256   6.097  0.2629 -0.6473 -0.3223
21206SOL    HW165059   5.446   2.331   6.153 -0.0183  0.1745 -1.3101
21206SOL    HW265060   5.512   2.219   6.076  0.3824 -0.8465  0.4745
21207SOL     OW65061   0.789   3.334   1.369  0.2730  0.2292  0.6934
21207SOL    HW165062   0.822   3.361   1.283 -2.1401 -1.0484 -0.7460
21207SOL    HW265063   0.694   3.345   1.362 -0.1199 -1.4811  2.6108
21208SOL     OW65064   4.487   1.371   5.256  0.6941 -0.1621  0.4233
21208SOL    HW165065   4.459   1.462   5.256  1.4581  0.0877 -0.8011
21208SOL    HW265066   4.503   1.350   5.164  0.7220 -1.4806  0.7010
21209SOL     OW65067   3.745   4.056  11.295  0.3488  0.3477 -0.2298
21209SOL    HW165068   3.671   4.115  11.284 -1.6047 -2.0942 -1.0261
21209SOL    HW265069   3.707   3.975  11.328  2.7073 -0.9211 -0.3895
21210SOL     OW65070   4.792   2.887   7.709  0.2726 -0.2451 -0.5722
21210SOL    HW165071   4.807   2.980   7.725 -1.6718  0.0007  0.0337
21210SOL    HW265072   4.855   2.843   7.767 -1.3989  0.6968  2.1569
21211SOL     OW65073   2.264   2.060   7.958 -0.0290 -0.3508 -0.1695
21211SOL    HW165074   2.177   2.032   7.986  0.2746 -0.2028  0.9514
21211SOL    HW265075   2.272   2.150   7.990  0.4829 -0.3053 -0.4165
21212SOL     OW65076   6.202   3.088   4.504 -0.2255 -0.2558 -0.2871
21212SOL    HW165077   6.176   3.052   4.589  1.1169  3.3035  1.8309
21212SOL    HW265078   6.296   3.073   4.499 -0.2097  0.0259 -0.9182
21213SOL     OW65079   5.715   1.008   2.029  0.0604  0.1658 -0.7504
21213SOL    HW165080   5.657   0.932   2.028  3.2409 -2.5281  0.1124
21213SOL    HW265081   5.752   1.009   2.118  1.5084  1.5622 -1.3141
21214SOL     OW65082   2.694   5.891  11.376 -0.1809  0.1780  0.4011
21214SOL    HW165083   2.725   5.963  11.322 -1.3293  1.6383  1.5965
21214SOL    HW265084   2.774   5.847  11.407  0.5079 -0.5885 -2.2138
21215SOL     OW65085   7.823   4.670   4.616  0.0386 -0.5443  0.2011
21215SOL    HW165086   7.909   4.711   4.612  1.3801 -3.1283  0.7092
21215SOL    HW265087   7.784   4.687   4.530  1.5024 -0.2912 -0.4340
21216SOL     OW65088   2.200   4.047  10.846 -0.0272 -0.1731  0.6283
21216SOL    HW165089   2.246   4.009  10.920  0.7255  0.8213  0.6936
21216SOL    HW265090   2.269   4.062  10.780 -0.3907  0.5213  0.3933
21217SOL     OW65091   7.001   3.977  10.523  0.0251  0.0723 -0.9540
21217SOL    HW165092   7.031   3.886  10.516  0.2201 -0.0048  0.4630
21217SOL    HW265093   6.913   3.976  10.487 -0.1627 -0.7979 -0.5158
21218SOL     OW65094   0.363   6.124   8.957  0.3557  0.3415  0.1114
21218SOL    HW165095   0.435   6.133   9.020 -0.3715  1.2948  0.8224
21218SOL    HW265096   0.308   6.201   8.973 -0.1590  0.2791 -1.2837
21219SOL     OW65097   0.174   7.292   0.555 -0.3594  0.1828 -0.0284
21219SOL    HW165098   0.187   7.310   0.648  1.5925  0.4831 -0.3121
21219SOL    HW265099   0.189   7.198   0.547  0.5812  0.3279 -0.1659
21220SOL     OW65100   3.979   1.930   4.517  0.3791  0.2911 -0.5319
21220SOL    HW165101   4.003   1.894   4.603  0.3005  1.6798  0.1080
21220SOL    HW265102   4.061   1.965   4.482  0.0076  1.8518  0.0662
21221SOL     OW65103   1.575   3.391   9.466 -0.7686 -0.4113  0.2324
21221SOL    HW165104   1.508   3.458   9.459  0.6555  1.1177  0.5958
21221SOL    HW265105   1.585   3.356   9.378 -1.1996  0.2068 -0.0650
21222SOL     OW65106   6.165   6.027   5.988  0.4090 -0.5252 -0.0622
21222SOL    HW165107   6.178   6.092   6.057  0.8112 -0.5498 -0.1138
21222SOL    HW265108   6.072   6.034   5.966  0.0719 -1.1361  1.0930
21223SOL     OW65109   0.793   4.894  10.080 -0.0057  0.2846  0.4261
21223SOL    HW165110   0.864   4.858  10.133 -1.0272  0.6319  2.0938
21223SOL    HW265111   0.800   4.848   9.996  0.5606 -1.5980  1.4469
21224SOL     OW65112   4.680   6.701   1.465 -0.1775  0.3407 -0.2242
21224SOL    HW165113   4.669   6.631   1.402  1.4174  0.4461 -0.6670
21224SOL    HW265114   4.619   6.769   1.437 -1.7729 -0.8570  0.2386
21225SOL     OW65115   6.470   6.407   8.665 -0.2562  0.4354 -0.7404
21225SOL    HW165116   6.507   6.322   8.640  0.0330  0.6117 -0.9252
21225SOL    HW265117   6.508   6.426   8.751 -1.0406 -0.0460 -0.2794
21226SOL     OW65118   0.196   7.924   4.474  0.1618  0.0072  0.0709
21226SOL    HW165119   0.247   8.000   4.446  0.7010 -1.1498 -2.2986
21226SOL    HW265120   0.107   7.941   4.442 -0.0694  0.2801  0.8336
21227SOL     OW65121   5.304   1.858   1.515  0.3849 -0.1893 -0.1191
21227SOL    HW165122   5.337   1.854   1.605  0.2727 -0.6007 -0.0951
21227SOL    HW265123   5.321   1.771   1.480 -1.6817 -0.7841  0.2382
21228SOL     OW65124   2.950   4.183  11.767 -0.1010  0.4851 -0.0060
21228SOL    HW165125   3.045   4.193  11.770 -0.0211 -0.0980 -0.3130
21228SOL    HW265126   2.926   4.152  11.854  0.0362  0.3031 -0.0325
21229SOL     OW65127   2.282   6.574   6.708 -0.2829  0.5990  0.8019
21229SOL    HW165128   2.265   6.511   6.778 -0.4651  1.3266  1.4280
21229SOL    HW265129   2.351   6.631   6.742  2.8699 -1.6209 -1.2749
21230SOL     OW65130   6.474   4.704   2.278  0.0690 -0.1479 -0.0039
21230SOL    HW165131   6.543   4.771   2.280 -0.2400  0.3233 -2.3677
21230SOL    HW265132   6.393   4.752   2.292  0.0092 -0.3296  0.2783
21231SOL     OW65133   4.389   2.331  10.448 -0.5306  0.3919  0.1158
21231SOL    HW165134   4.404   2.237  10.442 -1.0670  0.3920 -2.4395
21231SOL    HW265135   4.443   2.360  10.521  0.4214 -1.7354  0.3161
21232SOL     OW65136   6.639   1.675  12.114 -0.4062 -0.4001 -0.3865
21232SOL    HW165137   6.560   1.721  12.087  0.6784  2.2447  0.5757
21232SOL    HW265138   6.629   1.664  12.209 -0.3620 -1.6554 -0.5131
21233SOL     OW65139   4.319   2.207   5.615 -0.1562 -0.2050  0.1129
21233SOL    HW165140   4.392   2.254   5.575 -1.8428  2.1327 -0.4368
21233SOL    HW265141   4.354   2.171   5.696  1.8544 -0.1350 -0.6759
21234SOL     OW65142   4.963   1.153   6.992 -0.3701  0.0578 -0.0996
21234SOL    HW165143   5.052   1.131   6.967  0.1852  0.8469  1.1072
21234SOL    HW265144   4.920   1.176   6.910  1.1242  1.6766 -0.4778
21235SOL     OW65145   5.204   2.958   1.582  0.1383 -0.1548 -0.2449
21235SOL    HW165146   5.200   2.938   1.488 -1.3439 -1.3967  0.0403
21235SOL    HW265147   5.295   2.943   1.606  0.5983  0.4366 -1.5267
21236SOL     OW65148   1.769   2.472   1.008  0.5727  0.3150  0.3472
21236SOL    HW165149   1.789   2.429   1.091 -1.5010 -0.9762  0.2584
21236SOL    HW265150   1.840   2.446   0.950 -0.1495 -2.4787  0.5402
21237SOL     OW65151   3.105   3.004   2.512 -0.3213  0.0929  0.1149
21237SOL    HW165152   3.042   3.033   2.578 -0.0645 -0.5502  0.6714
21237SOL    HW265153   3.052   2.964   2.443 -0.5053 -1.2049  0.9715
21238SOL     OW65154   0.555   2.550   5.120 -0.1822 -0.5020 -0.1751
21238SOL    HW165155   0.582   2.465   5.084  3.4073  0.8208 -1.0285
21238SOL    HW265156   0.520   2.598   5.045  0.0994 -0.4038 -0.2462
21239SOL     OW65157   2.649   6.579   3.773 -0.0723 -0.1745 -0.0553
21239SOL    HW165158   2.610   6.645   3.715  1.8234 -0.5438 -1.8613
21239SOL    HW265159   2.720   6.626   3.818 -0.4887 -0.3087  0.7558
21240SOL     OW65160   5.122   1.134   5.852 -0.0949 -0.2121 -0.1783
21240SOL    HW165161   5.192   1.102   5.795  0.3954 -1.4352  1.0673
21240SOL    HW265162   5.109   1.065   5.917 -3.0247 -0.3815 -0.7977
21241SOL     OW65163   0.030   1.066  10.520  0.2641  0.5892 -0.0707
21241SOL    HW165164   0.099   1.003  10.537  0.7525  1.0819 -0.1828
21241SOL    HW265165  -0.021   1.070  10.601  3.3547  3.9360  2.0325
21242SOL     OW65166   5.346   4.945  11.715 -0.3951 -0.0953  0.6407
21242SOL    HW165167   5.292   4.867  11.728  0.2548 -0.1838  3.3193
21242SOL    HW265168   5.305   5.012  11.769  0.3628  0.7716  0.1744
21243SOL     OW65169   6.651   3.860   1.381  0.1746 -0.2388 -0.2947
21243SOL    HW165170   6.738   3.819   1.389  0.0176 -0.2338  1.9696
21243SOL    HW265171   6.610   3.845   1.466 -2.1694 -0.4421 -1.3989
21244SOL     OW65172   3.446   0.068   8.794 -0.1031 -0.9320 -0.5956
21244SOL    HW165173   3.440  -0.017   8.751 -1.6273 -2.3026  2.0685
21244SOL    HW265174   3.510   0.055   8.864 -0.2022  0.1973 -0.2758
21245SOL     OW65175   2.022   3.515   2.706  0.1979  0.1168 -0.3806
21245SOL    HW165176   2.019   3.591   2.763  2.4919 -0.3885  0.5266
21245SOL    HW265177   2.021   3.551   2.617  0.8095  1.1852  0.0318
21246SOL     OW65178   1.153   5.772   9.032  0.0384  0.0518  0.5232
21246SOL    HW165179   1.128   5.680   9.041  1.0918 -0.2166  0.8458
21246SOL    HW265180   1.171   5.801   9.122  2.8601 -0.3796  0.1977
21247SOL     OW65181   5.003   2.582  11.844  0.1431 -0.5307 -0.1896
21247SOL    HW165182   5.095   2.570  11.824 -0.0134 -2.5582  0.0868
21247SOL    HW265183   5.000   2.655  11.905  1.7137 -1.3122  0.8693
21248SOL     OW65184   3.569   1.941  11.033  0.0595  0.2081  0.1938
21248SOL    HW165185   3.550   2.028  10.996 -1.0772 -0.3081 -0.4860
21248SOL    HW265186   3.647   1.955  11.088  0.8151  1.3408 -1.0956
21249SOL     OW65187   6.110   5.874  10.326  0.2568  0.2056 -0.3838
21249SOL    HW165188   6.017   5.853  10.314  0.4028 -0.7206  0.0642
21249SOL    HW265189   6.109   5.964  10.359 -0.5201  0.0272  0.1290
21250SOL     OW65190   0.996   0.296   8.807  0.5480  0.0580  0.6365
21250SOL    HW165191   0.965   0.356   8.875 -0.7043  0.4794 -0.2804
21250SOL    HW265192   0.919   0.245   8.783  1.3425 -1.1762  0.6271
21251SOL     OW65193   2.278   2.671   5.575 -0.1267 -0.0732 -0.1714
21251SOL    HW165194   2.243   2.656   5.487 -1.0228  0.8782  0.0008
21251SOL    HW265195   2.370   2.647   5.569 -0.3325 -0.6679 -1.1898
21252SOL     OW65196   1.373   1.517   3.696 -0.2418 -0.1690  0.6035
21252SOL    HW165197   1.410   1.464   3.767  0.1810 -0.8293 -0.0902
21252SOL    HW265198   1.361   1.455   3.624 -1.1359  0.3875  0.2603
21253SOL     OW65199   6.004   0.164   1.162  0.0675  0.1712 -0.1623
21253SOL    HW165200   6.079   0.111   1.186  0.3890  0.3750 -0.7004
21253SOL    HW265201   6.028   0.204   1.079 -0.3885  0.7273 -0.0381
21254SOL     OW65202   3.591   5.915  10.026 -0.3374  0.0459  0.1903
21254SOL    HW165203   3.545   5.860   9.963 -1.2839  0.5298  0.4343
21254SOL    HW265204   3.672   5.940   9.981 -1.5342  1.3883 -1.3660
21255SOL     OW65205   6.192   6.754   4.271 -0.2179 -0.3689  0.2351
21255SOL    HW165206   6.119   6.725   4.326  0.6504  0.7620  2.0770
21255SOL    HW265207   6.180   6.849   4.264 -1.1344 -0.6108 -2.8498
21256SOL     OW65208   3.292   1.503   1.015  0.4546  0.5549 -0.1274
21256SOL    HW165209   3.314   1.513   0.922 -1.0661 -0.4326 -0.6278
21256SOL    HW265210   3.310   1.589   1.053  1.8996  0.7479 -1.1412
21257SOL     OW65211   5.734   6.368   5.138 -0.5923  0.1763  0.5805
21257SOL    HW165212   5.794   6.331   5.074 -1.4564  3.1360 -2.2298
21257SOL    HW265213   5.785   6.435   5.183 -0.2238 -1.3419  2.5833
21258SOL     OW65214   4.282   3.399   0.340  0.2100 -0.2245  0.1021
21258SOL    HW165215   4.358   3.341   0.330  1.7167  1.8171 -1.3042
21258SOL    HW265216   4.302   3.451   0.418  0.3567  0.4023 -0.3433
21259SOL     OW65217   2.708   0.432   0.307 -0.1371 -0.7003  0.3732
21259SOL    HW165218   2.766   0.459   0.379 -1.3280 -0.7366  1.3751
21259SOL    HW265219   2.635   0.494   0.311  1.0351  1.0502 -2.5673
21260SOL     OW65220   5.636   3.366   5.764  0.1531 -0.5249 -0.1353
21260SOL    HW165221   5.569   3.379   5.831  0.9919 -0.9621  0.8136
21260SOL    HW265222   5.719   3.368   5.812  0.7051 -2.3493 -0.9177
21261SOL     OW65223   6.090   0.654   4.639  0.4211  0.2740 -0.4852
21261SOL    HW165224   6.091   0.723   4.705  0.3068  0.0715 -0.2717
21261SOL    HW265225   6.147   0.687   4.569  0.6782  0.4162 -0.2118
21262SOL     OW65226   6.734   0.854   1.177 -0.3074  0.0464 -0.1194
21262SOL    HW165227   6.816   0.827   1.137 -0.3497 -0.7471  0.3094
21262SOL    HW265228   6.670   0.789   1.148 -0.1310 -1.1864  2.0288
21263SOL     OW65229   4.231   0.047   5.803 -0.4016  0.3494  0.3324
21263SOL    HW165230   4.251  -0.046   5.805 -0.9033  0.1731 -1.2438
21263SOL    HW265231   4.136   0.052   5.813 -0.5199  0.5883 -0.7597
21264SOL     OW65232   5.281   5.205   7.309 -0.5640  0.5911 -0.2891
21264SOL    HW165233   5.211   5.154   7.348  0.1180  0.1450  0.3686
21264SOL    HW265234   5.342   5.140   7.274 -1.2112  0.9650 -2.2533
21265SOL     OW65235   1.998   5.230   5.384 -0.1466 -0.2131  0.5421
21265SOL    HW165236   1.995   5.224   5.288 -0.4415  0.9491  0.4642
21265SOL    HW265237   1.907   5.240   5.411  0.0119  0.3668  0.8725
21266SOL     OW65238   4.946   6.107   8.496  0.2002 -0.1715  0.1959
21266SOL    HW165239   4.947   6.018   8.529  0.7639 -0.5442 -0.7863
21266SOL    HW265240   4.887   6.154   8.555  0.6994 -0.9390  1.3440
21267SOL     OW65241   4.249   4.445   2.998 -0.3166  0.2263 -0.1735
21267SOL    HW165242   4.251   4.525   3.050  2.5924  0.5740 -0.6466
21267SOL    HW265243   4.230   4.375   3.062  0.4273  0.9406  0.8558
21268SOL     OW65244   0.909   4.996   5.798  0.1888 -0.4807  0.1322
21268SOL    HW165245   0.912   5.050   5.877  0.6881  0.0689 -0.2514
21268SOL    HW265246   0.881   4.910   5.829  0.2588 -0.2428  0.8903
21269SOL     OW65247   6.113   6.490   9.767  0.1183  0.5283 -0.4912
21269SOL    HW165248   6.183   6.435   9.734  0.0026 -0.5946  1.0316
21269SOL    HW265249   6.069   6.524   9.689  2.2992  1.2353 -1.4868
21270SOL     OW65250   6.269   4.736  10.056 -0.3330  0.1122  0.6510
21270SOL    HW165251   6.315   4.693  10.128 -0.1429  0.8125  0.9580
21270SOL    HW265252   6.211   4.798  10.098  0.4396  1.1888  0.1919
21271SOL     OW65253   3.925   6.410   1.464  0.9958 -0.1498 -0.6616
21271SOL    HW165254   3.980   6.470   1.515 -0.9037  3.5097 -2.4890
21271SOL    HW265255   3.858   6.380   1.526  1.3548  0.5065  0.0662
21272SOL     OW65256   6.636   4.422   4.906 -0.6500  0.1831  0.0642
21272SOL    HW165257   6.686   4.496   4.942 -0.9285  0.4262 -0.0488
21272SOL    HW265258   6.650   4.428   4.812  2.8385 -2.3886  0.2305
21273SOL     OW65259   2.349   4.750   3.361  0.4297  0.3398  0.6739
21273SOL    HW165260   2.390   4.663   3.363 -0.8037 -0.2926 -0.0985
21273SOL    HW265261   2.319   4.760   3.271 -1.5785  0.5207  1.3126
21274SOL     OW65262   6.503   5.234  10.771  0.2719  0.3065 -0.6601
21274SOL    HW165263   6.516   5.143  10.798 -2.6844 -0.1239 -0.2728
21274SOL    HW265264   6.479   5.229  10.679  0.3405  0.7230 -0.7044
21275SOL     OW65265   1.661   3.853  10.259 -0.1057 -0.0763 -0.3229
21275SOL    HW165266   1.732   3.831  10.199  0.2642  1.6423 -0.5505
21275SOL    HW265267   1.698   3.920  10.316 -0.8478 -0.7881  1.0498
21276SOL     OW65268   0.039   3.997  11.478  0.6351  0.0078  0.7675
21276SOL    HW165269  -0.045   3.991  11.523  0.1565 -1.1498 -0.2156
21276SOL    HW265270   0.018   4.028  11.390  1.3512  0.5888  0.7844
21277SOL     OW65271   5.636   6.314   6.490  0.7734 -0.3293  0.4505
21277SOL    HW165272   5.683   6.380   6.542 -0.9740  1.7924 -0.4842
21277SOL    HW265273   5.686   6.309   6.408  0.1213  1.0297 -0.0712
21278SOL     OW65274   1.429   2.837  10.561  0.2062  0.8544  0.6851
21278SOL    HW165275   1.522   2.815  10.566 -0.0498  0.0830  2.5630
21278SOL    HW265276   1.426   2.932  10.573  0.6814  0.7437  1.7110
21279SOL     OW65277   2.756   6.262  10.159  0.4139  0.1892  0.1813
21279SOL    HW165278   2.792   6.251  10.247  0.0958 -2.7293  0.0457
21279SOL    HW265279   2.832   6.258  10.101  0.4389  0.1999  0.2141
21280SOL     OW65280   1.760   6.216   4.675 -0.2681 -0.6999 -0.0841
21280SOL    HW165281   1.753   6.202   4.770 -1.2543 -3.1665 -0.4691
21280SOL    HW265282   1.693   6.281   4.656 -1.0394 -1.2356  0.7185
21281SOL     OW65283   0.542   5.538   6.259  0.0626 -0.0823 -0.2609
21281SOL    HW165284   0.484   5.593   6.206 -0.7277 -0.3826  0.2615
21281SOL    HW265285   0.534   5.451   6.219 -0.1538 -0.2057  0.0510
21282SOL     OW65286   5.535   6.330   0.222 -0.3281 -0.2271  0.4478
21282SOL    HW165287   5.566   6.417   0.197  0.9093 -0.8919 -0.3893
21282SOL    HW265288   5.476   6.304   0.150 -0.4204 -0.2268  0.5232
21283SOL     OW65289   4.407   2.457   2.068  0.3446  0.0933  0.5026
21283SOL    HW165290   4.446   2.412   2.143 -2.3696 -0.5979  1.6272
21283SOL    HW265291   4.406   2.391   1.998  0.7791 -0.0099  0.5916
21284SOL     OW65292   0.346   0.070  10.646  0.2275  0.4165 -0.1842
21284SOL    HW165293   0.372  -0.019  10.624 -0.3267  0.1603  0.1493
21284SOL    HW265294   0.393   0.089  10.727 -1.2882 -0.4117  0.9631
21285SOL     OW65295   4.868   7.580   5.559 -0.4953  0.4412  0.0811
21285SOL    HW165296   4.876   7.566   5.654  1.2005 -0.3073 -0.1379
21285SOL    HW265297   4.958   7.586   5.528 -1.0011 -0.3258 -1.6420
21286SOL     OW65298   6.373   0.232   3.566  0.7726 -0.4418 -0.4802
21286SOL    HW165299   6.349   0.237   3.474 -2.1164 -0.9451  0.1511
21286SOL    HW265300   6.292   0.209   3.611  1.6552  1.4672  2.3869
21287SOL     OW65301   4.051   1.394   7.220  0.2208  0.0293 -0.5376
21287SOL    HW165302   4.066   1.438   7.304  0.6410 -0.9471 -0.0936
21287SOL    HW265303   4.137   1.359   7.196 -0.1276 -0.6298 -0.8405
21288SOL     OW65304   7.869   0.744   4.018 -0.4029  0.4490 -0.5339
21288SOL    HW165305   7.835   0.794   4.092  1.2852 -0.0164  0.6022
21288SOL    HW265306   7.818   0.663   4.017 -0.0952  0.2391  0.4408
21289SOL     OW65307   7.305   5.878  10.216  0.2719 -0.1759 -0.1735
21289SOL    HW165308   7.369   5.913  10.278  1.8511 -1.0005 -1.2665
21289SOL    HW265309   7.258   5.811  10.266 -0.2202  0.8741  0.8270
21290SOL     OW65310   0.401   0.902  11.873  0.2235  0.1395  0.0233
21290SOL    HW165311   0.458   0.893  11.797 -0.4306  1.6995 -0.6966
21290SOL    HW265312   0.416   0.992  11.903 -2.5178  0.9386 -0.7808
21291SOL     OW65313   1.466   6.428   6.268  0.3837  0.5180  0.1674
21291SOL    HW165314   1.547   6.473   6.245  0.7963 -0.7093 -0.8775
21291SOL    HW265315   1.398   6.476   6.220  0.7998  0.1249 -0.8399
21292SOL     OW65316   5.217   7.097   0.476 -0.1987 -0.9841  0.4139
21292SOL    HW165317   5.133   7.125   0.513 -0.4195  0.1261 -0.8317
21292SOL    HW265318   5.209   7.003   0.465 -1.8880 -0.7050 -1.0855
21293SOL     OW65319   3.545   2.368   9.397 -1.3961 -0.2338 -0.4034
21293SOL    HW165320   3.564   2.434   9.463 -0.2234  0.8410 -1.7402
21293SOL    HW265321   3.492   2.415   9.332 -0.8025 -0.6844 -1.2225
21294SOL     OW65322   4.648   3.500   5.530  0.0192  0.3647 -0.1578
21294SOL    HW165323   4.617   3.489   5.440 -1.4185 -0.2069  0.3833
21294SOL    HW265324   4.588   3.447   5.583 -0.0265  1.8059  1.3005
21295SOL     OW65325   3.051   3.920  10.578  0.1523 -0.4049  0.2069
21295SOL    HW165326   3.033   3.871  10.497  1.5420  0.1593 -0.4731
21295SOL    HW265327   2.965   3.936  10.615 -0.4052 -3.0588  0.2943
21296SOL     OW65328   7.223   4.692   0.011  0.4863 -0.3658 -0.2275
21296SOL    HW165329   7.233   4.771   0.064  0.4457 -1.1764  1.0232
21296SOL    HW265330   7.257   4.717  -0.075  0.2654  1.0734  0.0681
21297SOL     OW65331   7.033   6.279   3.754  0.1768  0.1981 -0.5479
21297SOL    HW165332   6.993   6.202   3.714  0.5988  0.1130 -0.8048
21297SOL    HW265333   6.962   6.344   3.757 -0.9664 -1.0182  2.0277
21298SOL     OW65334   1.747   5.706   2.571  0.0115 -0.1787  0.0473
21298SOL    HW165335   1.811   5.654   2.523 -0.7351 -0.8596 -0.2165
21298SOL    HW265336   1.783   5.795   2.570 -0.9065  0.2982 -3.5238
21299SOL     OW65337   3.262   6.402   2.177  0.6995 -0.3757  0.6661
21299SOL    HW165338   3.326   6.455   2.226 -1.3097  0.7143  2.3028
21299SOL    HW265339   3.188   6.394   2.237 -1.6066  0.2808 -1.8895
21300SOL     OW65340   4.088   0.910   5.161  0.1150  0.2373 -1.4363
21300SOL    HW165341   4.164   0.952   5.120  0.4971  0.3458 -0.6277
21300SOL    HW265342   4.056   0.974   5.224 -0.3490 -0.0107 -1.4125
21301SOL     OW65343   0.043   2.453  11.711 -0.3808  0.0207  0.3551
21301SOL    HW165344   0.031   2.548  11.710 -0.5913  0.0168 -1.9124
21301SOL    HW265345  -0.046   2.418  11.720 -0.3859  0.0493  0.4137
21302SOL     OW65346   2.100   1.826  11.252  0.6069  0.2444 -0.0776
21302SOL    HW165347   2.122   1.909  11.210  4.1530 -0.1985  0.5745
21302SOL    HW265348   2.112   1.761  11.183  3.4381 -0.1698  0.6693
21303SOL     OW65349   6.436   5.910   1.090 -0.3829 -0.0105  0.3152
21303SOL    HW165350   6.349   5.947   1.100 -0.9514 -1.1746 -0.2166
21303SOL    HW265351   6.485   5.943   1.166 -0.5496  2.5743 -0.5962
21304SOL     OW65352   5.968   6.027   3.472 -0.1693  0.2403  0.0983
21304SOL    HW165353   6.008   5.949   3.435 -1.4848 -0.7530  0.6944
21304SOL    HW265354   5.950   6.004   3.563 -1.4162  0.8953  0.0440
21305SOL     OW65355   0.744   7.014  10.426 -0.2488  0.7244 -0.0880
21305SOL    HW165356   0.792   6.931  10.433 -0.3460  0.4618 -2.0266
21305SOL    HW265357   0.810   7.081  10.445 -0.3025  0.2311  2.0737
21306SOL     OW65358   2.897   6.446   6.675 -0.0329 -0.1914  0.6941
21306SOL    HW165359   2.803   6.462   6.668  0.1253  1.1208  1.2516
21306SOL    HW265360   2.933   6.479   6.593  0.1097  0.9320  1.1826
21307SOL     OW65361   2.887   2.108  11.507  0.0512  0.7460 -0.3139
21307SOL    HW165362   2.937   2.075  11.432 -0.2142 -0.4288 -0.0020
21307SOL    HW265363   2.951   2.114  11.578  0.8176  3.9568 -1.1040
21308SOL     OW65364   7.273   1.418   5.854 -0.5950  0.0610  0.3690
21308SOL    HW165365   7.202   1.363   5.887 -3.4034  2.9901 -0.2501
21308SOL    HW265366   7.280   1.395   5.761  0.6933 -1.5448  0.8139
21309SOL     OW65367   0.222   6.033   0.744 -0.2978 -0.6712 -0.1920
21309SOL    HW165368   0.281   6.073   0.680 -0.5061 -1.0879 -0.6469
21309SOL    HW265369   0.274   6.024   0.823 -0.2857  0.6498 -0.0274
21310SOL     OW65370   2.865   4.416   9.268 -0.0066 -0.2269  0.3917
21310SOL    HW165371   2.829   4.481   9.328 -0.5800  0.1281 -0.3099
21310SOL    HW265372   2.955   4.404   9.296  0.9565  2.8166 -1.0302
21311SOL     OW65373   3.813   2.097   5.751  0.6438 -0.0498  0.0122
21311SOL    HW165374   3.812   2.144   5.834  2.1676  1.1696 -0.6246
21311SOL    HW265375   3.884   2.136   5.701  1.4890 -2.5074 -0.8682
21312SOL     OW65376   5.655   7.644  12.346  0.3358  0.4904  0.0428
21312SOL    HW165377   5.738   7.680  12.376  1.6212  1.4663 -4.0463
21312SOL    HW265378   5.608   7.719  12.310 -1.5183 -0.3771  0.5153
21313SOL     OW65379   4.795   4.652   4.037  0.3037 -0.0890  0.9177
21313SOL    HW165380   4.740   4.683   3.965 -1.0395 -0.0189  1.9476
21313SOL    HW265381   4.848   4.582   3.999  0.3417  0.6194 -0.3792
21314SOL     OW65382   2.241   7.099  12.153  0.0085  0.0042  0.0936
21314SOL    HW165383   2.208   7.105  12.243  1.2885  0.2271  0.5702
21314SOL    HW265384   2.198   7.022  12.117 -0.8043  0.1186  0.7661
21315SOL     OW65385   3.166   6.914   1.779 -0.4206 -0.3737  0.1266
21315SOL    HW165386   3.148   6.923   1.872  0.7323  1.6366  0.2208
21315SOL    HW265387   3.161   6.820   1.762 -4.0292 -0.5595  1.4286
21316SOL     OW65388   1.965   2.287   5.097 -0.0376  0.3735  0.8390
21316SOL    HW165389   1.957   2.220   5.166  0.9318 -0.2581  0.3683
21316SOL    HW265390   2.007   2.241   5.024  0.7543  1.5231  0.5394
21317SOL     OW65391   2.461   4.979   8.318 -0.3198 -0.6122  0.0167
21317SOL    HW165392   2.449   4.939   8.232  1.0335  0.7955 -0.8771
21317SOL    HW265393   2.554   4.967   8.336 -0.0549  1.3276  0.1029
21318SOL     OW65394   0.477   7.023  12.383 -0.1946  0.4137  1.2144
21318SOL    HW165395   0.564   6.986  12.369 -0.0671  1.4907 -1.4104
21318SOL    HW265396   0.444   6.977  12.460  2.1047 -1.0616  1.4350
21319SOL     OW65397   2.503   3.382   1.836 -0.6409 -0.4559 -0.1101
21319SOL    HW165398   2.422   3.416   1.799 -0.5572  0.3349  0.4091
21319SOL    HW265399   2.519   3.437   1.913 -0.2539 -1.3783  0.4935
21320SOL     OW65400   4.936   2.902   0.176 -0.5485  0.4146  0.1038
21320SOL    HW165401   4.993   2.968   0.213 -0.7985  1.6331 -1.5697
21320SOL    HW265402   4.970   2.819   0.209  1.4341  1.1882  0.1206
21321SOL     OW65403   1.519   2.625   9.837  0.0793  0.1929  0.6340
21321SOL    HW165404   1.470   2.666   9.766  0.2519  2.2478  1.6258
21321SOL    HW265405   1.457   2.562   9.874 -1.2674  1.5299  0.7809
21322SOL     OW65406   6.920   6.355   6.664 -0.0527 -0.3398 -0.0474
21322SOL    HW165407   6.924   6.266   6.700  0.3772 -0.3128 -0.0237
21322SOL    HW265408   6.940   6.412   6.738  2.5073 -0.3537 -0.6302
21323SOL     OW65409   4.119   2.812   5.948 -0.1116 -0.2136  0.1982
21323SOL    HW165410   4.125   2.781   5.858 -1.4212  1.3653 -0.4854
21323SOL    HW265411   4.060   2.751   5.991 -3.5655  1.7289 -1.4228
21324SOL     OW65412   3.951   0.389   6.354  1.1024 -0.6334 -0.2829
21324SOL    HW165413   3.917   0.347   6.275  0.9905 -0.5892 -0.2586
21324SOL    HW265414   4.020   0.447   6.323 -0.9560  1.7342 -0.7318
21325SOL     OW65415   2.953   7.635  12.174 -0.2732  0.3944  0.4226
21325SOL    HW165416   2.977   7.714  12.222 -0.3288  0.2302  0.7187
21325SOL    HW265417   2.873   7.660  12.127 -0.2287  0.5478  0.4268
21326SOL     OW65418   2.131   6.015   9.980 -0.0694 -0.1441 -0.0082
21326SOL    HW165419   2.185   6.008   9.901  0.5566 -1.6169  0.5293
21326SOL    HW265420   2.043   6.034   9.946  0.1620 -0.8788 -1.0690
21327SOL     OW65421   2.016   4.528   5.846  0.0761 -0.2933  0.1313
21327SOL    HW165422   2.051   4.581   5.918 -0.7949  1.7525 -0.8735
21327SOL    HW265423   1.973   4.455   5.890  0.0360  0.6174  1.6955
21328SOL     OW65424   6.286   5.909  12.079  1.0697  0.4269  0.0254
21328SOL    HW165425   6.260   5.928  11.989  1.1272 -0.3520 -0.1602
21328SOL    HW265426   6.382   5.915  12.079  0.9919  3.0099  0.6450
21329SOL     OW65427   7.730   5.672   9.484 -0.4301 -0.0990  0.0219
21329SOL    HW165428   7.774   5.746   9.443  0.2532  0.1900  1.2363
21329SOL    HW265429   7.664   5.711   9.541  0.0251 -0.4044  0.7769
21330SOL     OW65430   3.006   0.663   5.524 -0.0635 -0.5268  0.4894
21330SOL    HW165431   2.959   0.737   5.561 -1.1053 -0.9742  0.1017
21330SOL    HW265432   3.078   0.701   5.474  0.4428  0.1413  1.6963
21331SOL     OW65433   6.555   7.817   3.823 -0.1127  0.1410 -0.4628
21331SOL    HW165434   6.472   7.770   3.830 -0.6085  1.1167  0.5053
21331SOL    HW265435   6.611   7.778   3.890 -0.8164  1.4536  0.9449
21332SOL     OW65436   4.668   4.722  11.003 -0.2224 -0.0933 -0.0049
21332SOL    HW165437   4.625   4.800  10.969  1.0604  0.8174  0.3565
21332SOL    HW265438   4.726   4.694  10.932 -0.5036 -0.5860 -0.0432
21333SOL     OW65439   7.624   1.278   5.101 -0.2201  0.0673  0.0565
21333SOL    HW165440   7.715   1.308   5.113  0.1323 -1.1590  0.6252
21333SOL    HW265441   7.622   1.244   5.011 -0.2419  0.4865 -0.1049
21334SOL     OW65442   5.650   5.824   8.682 -0.4199 -0.6706 -0.4033
21334SOL    HW165443   5.743   5.815   8.660 -0.3571 -1.9084  0.2819
21334SOL    HW265444   5.629   5.745   8.732 -1.3800  0.4272  1.0380
21335SOL     OW65445   1.920   3.285   1.929  0.3644  0.3458  0.5541
21335SOL    HW165446   1.971   3.365   1.921  0.8011  0.1241  1.0873
21335SOL    HW265447   1.956   3.226   1.863 -0.8804  1.0524 -0.8224
21336SOL     OW65448   2.975   1.229  10.032  0.0100  0.3209  0.4221
21336SOL    HW165449   2.923   1.173  10.090  0.1477 -0.1936  0.0528
21336SOL    HW265450   3.017   1.292  10.090  0.0966 -0.1494  0.8736
21337SOL     OW65451   0.577   0.204   3.582  0.2661  0.1668  0.3876
21337SOL    HW165452   0.621   0.133   3.627 -0.2171 -0.5310 -0.2053
21337SOL    HW265453   0.568   0.273   3.648  1.8374  0.1696  0.6279
21338SOL     OW65454   4.452   2.818  11.627  0.6936  0.0185  0.7133
21338SOL    HW165455   4.479   2.881  11.561 -0.5184  0.9110  1.0223
21338SOL    HW265456   4.356   2.818  11.622  0.6681 -1.9529  0.6024
21339SOL     OW65457   2.116   1.664   4.721 -1.0162  0.3207  0.3436
21339SOL    HW165458   2.058   1.589   4.713 -0.3777  0.0189 -2.1158
21339SOL    HW265459   2.148   1.661   4.812 -1.0554 -2.3264  0.3216
21340SOL     OW65460   1.269   1.025   5.759 -0.2077 -0.3329 -0.2524
21340SOL    HW165461   1.306   1.028   5.847  0.4261 -1.7351 -0.4362
21340SOL    HW265462   1.306   1.101   5.714  0.5783 -0.4024  0.2732
21341SOL     OW65463   6.299   6.246   8.302 -0.3466  0.1056 -0.4910
21341SOL    HW165464   6.391   6.259   8.278  0.8361 -0.6734  3.0001
21341SOL    HW265465   6.286   6.151   8.298 -0.1777 -0.0323  1.3547
21342SOL     OW65466   7.385   4.707   6.143 -0.0877 -0.0850 -0.3794
21342SOL    HW165467   7.441   4.769   6.190  0.6284 -2.0287  1.5021
21342SOL    HW265468   7.345   4.654   6.213  0.3272 -2.5542 -1.9101
21343SOL     OW65469   6.682   3.797   6.297  0.0862  0.6205  0.2124
21343SOL    HW165470   6.691   3.853   6.220  0.8247  0.0148 -0.1592
21343SOL    HW265471   6.638   3.852   6.362 -1.1661  0.9280 -0.8645
21344SOL     OW65472   2.000   1.444   8.469  0.8896 -0.0411 -0.5531
21344SOL    HW165473   1.972   1.535   8.480 -0.9774 -0.7806  1.7017
21344SOL    HW265474   2.092   1.450   8.441  0.6817  2.5097 -0.8836
21345SOL     OW65475   7.860   0.577   8.339  0.3276  0.2430  0.0425
21345SOL    HW165476   7.943   0.536   8.366 -0.0155  0.0983  0.9049
21345SOL    HW265477   7.826   0.519   8.271 -1.3620 -2.4397  2.8486
21346SOL     OW65478   4.045   4.379   5.568  0.2978 -0.2425 -0.3960
21346SOL    HW165479   3.957   4.394   5.533  0.7464 -0.6239 -1.7127
21346SOL    HW265480   4.068   4.463   5.608  0.2614  0.6279 -2.1317
21347SOL     OW65481   0.251   6.376  10.498 -0.3945  0.5406  0.4549
21347SOL    HW165482   0.329   6.374  10.441 -1.0755 -0.0404 -0.4992
21347SOL    HW265483   0.269   6.309  10.564  0.0209  0.5805  0.3899
21348SOL     OW65484   1.985   3.467  10.246 -0.0143  0.9620  0.2821
21348SOL    HW165485   1.983   3.448  10.340  1.9236 -0.4295  0.1093
21348SOL    HW265486   2.050   3.537  10.237  0.4587  0.4834 -0.0873
21349SOL     OW65487   0.163   0.264   0.349  0.3321 -0.2611  0.1716
21349SOL    HW165488   0.124   0.288   0.265  0.0538 -1.5357 -0.0858
21349SOL    HW265489   0.110   0.310   0.414  1.5448  2.0743 -0.3731
21350SOL     OW65490   6.975   7.871   0.723 -0.1268 -0.1814 -0.3973
21350SOL    HW165491   6.896   7.912   0.756 -0.0134 -0.5624  0.3595
21350SOL    HW265492   7.022   7.942   0.679 -0.4509  0.2513 -0.0526
21351SOL     OW65493   3.084   5.741  10.477 -0.5558 -0.2763 -0.1857
21351SOL    HW165494   3.153   5.768  10.416  0.7366  0.5717  1.5854
21351SOL    HW265495   3.130   5.719  10.558 -2.4803  2.6783  1.8914
21352SOL     OW65496   3.713   0.052  11.076  0.0393  0.2924  0.0874
21352SOL    HW165497   3.700  -0.038  11.045 -1.5419 -0.3426  2.3533
21352SOL    HW265498   3.695   0.048  11.170 -0.8223  3.1149  0.1285
21353SOL     OW65499   5.868   4.606   0.435  0.0786  0.2439 -0.6948
21353SOL    HW165500   5.961   4.621   0.422  0.2402  0.9562  0.9548
21353SOL    HW265501   5.860   4.512   0.450  0.4953  0.1502 -1.0434
21354SOL     OW65502   4.330   5.704   9.729  0.1891 -0.9592 -0.0893
21354SOL    HW165503   4.271   5.635   9.700 -1.7215  0.4491  0.2813
21354SOL    HW265504   4.300   5.728   9.816 -0.1539  1.3035 -0.7652
21355SOL     OW65505   2.084   5.961   6.870  0.3556  0.3262 -0.0554
21355SOL    HW165506   2.127   6.046   6.860  0.3730  0.3679  0.3389
21355SOL    HW265507   2.053   5.961   6.961 -0.8122  0.4541 -0.4404
21356SOL     OW65508   6.450   1.992   7.930  0.0641 -0.1645 -0.4669
21356SOL    HW165509   6.393   1.960   7.861 -0.5468 -0.2541  0.0769
21356SOL    HW265510   6.429   1.939   8.006 -0.0920  0.7007  0.1098
21357SOL     OW65511   4.432   0.454  10.027  0.3563  0.4310 -0.1795
21357SOL    HW165512   4.461   0.498  10.107  1.1300 -0.1118 -0.1635
21357SOL    HW265513   4.479   0.499   9.957 -0.8889  1.4257 -0.4373
21358SOL     OW65514   0.251   5.812  11.056  0.1743  0.0748  0.6297
21358SOL    HW165515   0.206   5.810  10.972  0.9345 -0.6139  0.2213
21358SOL    HW265516   0.272   5.904  11.070  0.3238  0.1583 -0.0964
21359SOL     OW65517   1.945   6.540   2.635  0.3422 -0.5900 -0.4708
21359SOL    HW165518   1.969   6.610   2.695 -2.3818  0.3649 -0.3571
21359SOL    HW265519   2.028   6.512   2.595  1.6767  1.6554  0.5729
21360SOL     OW65520   5.807   5.374  10.434 -0.4769  0.2873 -0.4260
21360SOL    HW165521   5.771   5.355  10.347  3.0961  1.5892 -2.3651
21360SOL    HW265522   5.842   5.290  10.465  0.5272  0.3038 -1.4634
21361SOL     OW65523   4.611   4.632   8.693  0.3349  0.7085  0.1185
21361SOL    HW165524   4.516   4.634   8.681  0.3744 -1.4564 -1.1646
21361SOL    HW265525   4.646   4.629   8.604  1.4963 -0.0650  0.5810
21362SOL     OW65526   3.480   7.368   5.180 -0.3592  0.0928 -0.0369
21362SOL    HW165527   3.417   7.365   5.108 -1.6220  2.0480  0.8953
21362SOL    HW265528   3.562   7.337   5.141 -1.7794 -2.3857 -1.3421
21363SOL     OW65529   3.820   5.916   1.658  0.7913  0.2967  0.2894
21363SOL    HW165530   3.749   5.908   1.722  0.3260 -0.7240 -0.3325
21363SOL    HW265531   3.783   5.968   1.587  0.6872 -0.1605  0.0050
21364SOL     OW65532   7.149   6.760  10.343  0.3546 -0.0409 -0.4513
21364SOL    HW165533   7.156   6.815  10.265 -4.2245 -0.4560 -1.4503
21364SOL    HW265534   7.105   6.815  10.408 -0.6370 -1.2514 -0.0534
21365SOL     OW65535   5.736   4.242   6.315  0.2311 -0.1420  0.5541
21365SOL    HW165536   5.695   4.273   6.396 -2.7981 -2.2863  0.0183
21365SOL    HW265537   5.823   4.212   6.342 -0.1179  0.5867  2.6881
21366SOL     OW65538   5.887   0.054   5.494 -0.4966  0.2716 -0.5453
21366SOL    HW165539   5.863   0.133   5.445  0.9870  0.7960 -0.4900
21366SOL    HW265540   5.983   0.058   5.499 -0.5534 -0.1889  1.7022
21367SOL     OW65541   6.096   7.650  10.901  0.0606  0.3119 -0.4107
21367SOL    HW165542   6.115   7.557  10.885  2.2185  0.7234 -0.4950
21367SOL    HW265543   6.159   7.697  10.847  0.0090  1.8182  0.7746
21368SOL     OW65544   1.015   0.427   4.737 -0.0271 -0.2586  0.1268
21368SOL    HW165545   1.063   0.506   4.713 -0.9857  0.7572  1.3872
21368SOL    HW265546   0.995   0.384   4.653 -0.3275  1.3468 -0.6582
21369SOL     OW65547   4.807   7.265   4.428 -0.3251  0.0315 -0.1163
21369SOL    HW165548   4.868   7.298   4.494  0.7227 -0.5334 -0.7710
21369SOL    HW265549   4.781   7.343   4.379 -1.6551  0.5666  1.3599
21370SOL     OW65550   6.018   7.621   9.948  0.0065  0.1261 -0.2002
21370SOL    HW165551   5.931   7.584   9.936 -0.0111 -0.2604  0.9527
21370SOL    HW265552   6.075   7.544   9.954  0.3443  0.3622 -0.4017
21371SOL     OW65553   2.459   5.652   9.354  0.8914  0.4051 -0.1563
21371SOL    HW165554   2.365   5.636   9.349  1.0495 -1.2557  1.1250
21371SOL    HW265555   2.493   5.627   9.268  0.2884 -0.1014 -0.2549
21372SOL     OW65556   6.825   6.341   3.952  0.1593 -0.1160  0.2591
21372SOL    HW165557   6.799   6.386   3.871  0.0632  1.1749  0.9841
21372SOL    HW265558   6.862   6.411   4.007  1.1748 -1.1514  0.9323
21373SOL     OW65559   5.884   3.304   7.906 -1.1203 -0.0520  0.0910
21373SOL    HW165560   5.942   3.235   7.874 -1.2244 -0.0871 -0.0249
21373SOL    HW265561   5.937   3.383   7.905 -0.6792 -0.3162  1.2211
21374SOL     OW65562   4.126   1.651   3.787 -0.0895 -0.6236  0.5013
21374SOL    HW165563   4.176   1.602   3.721 -1.2179 -0.5064 -0.4604
21374SOL    HW265564   4.039   1.660   3.750 -0.0956  1.5955  0.9204
21375SOL     OW65565   2.557   3.989   5.693 -0.6318  0.1826 -0.5044
21375SOL    HW165566   2.475   4.031   5.667 -0.6254  1.2128  1.0549
21375SOL    HW265567   2.574   4.020   5.782  1.4994  0.0621 -0.8097
21376SOL     OW65568   6.307   6.407   0.923  0.2889  0.2632 -0.0505
21376SOL    HW165569   6.290   6.398   1.017  2.4155 -1.2786  0.2578
21376SOL    HW265570   6.290   6.500   0.904  2.5583  1.3394  2.5077
21377SOL     OW65571   5.339   1.852  10.600  0.2593  0.4393  0.8564
21377SOL    HW165572   5.253   1.895  10.606 -0.6605 -1.2904  0.7738
21377SOL    HW265573   5.353   1.815  10.687 -0.3956 -1.6124  0.1384
21378SOL     OW65574   0.733   1.740   8.800 -0.5241 -0.1430 -0.1186
21378SOL    HW165575   0.796   1.773   8.735 -0.3467  2.0407  1.0710
21378SOL    HW265576   0.656   1.718   8.749  0.1059  0.1778 -1.2521
21379SOL     OW65577   4.582   5.670   4.602 -0.0899  0.4278 -0.0500
21379SOL    HW165578   4.665   5.703   4.637 -0.6183  1.0156  0.6913
21379SOL    HW265579   4.572   5.583   4.641 -1.5160  1.7314  2.8194
21380SOL     OW65580   6.150   3.875  11.022  0.4284  0.6745  0.2974
21380SOL    HW165581   6.101   3.956  11.009  0.2442  0.4586 -0.3975
21380SOL    HW265582   6.238   3.894  10.990 -0.3474 -0.2408 -2.7048
21381SOL     OW65583   3.472   2.790   1.811 -0.4524 -0.0782 -0.5357
21381SOL    HW165584   3.383   2.825   1.806  0.1630  1.8185  0.6349
21381SOL    HW265585   3.483   2.766   1.903  0.0715 -0.8014 -0.7815
21382SOL     OW65586   7.709   5.434   8.590  0.1470  0.0608 -0.1365
21382SOL    HW165587   7.757   5.511   8.559  0.4060 -0.6486 -1.5377
21382SOL    HW265588   7.637   5.471   8.643 -0.5031  1.3476 -1.8177
21383SOL     OW65589   7.324   3.468   3.525  0.0267 -0.1650  0.2034
21383SOL    HW165590   7.266   3.542   3.508  1.1571  0.4286 -1.2778
21383SOL    HW265591   7.277   3.393   3.490  0.3851  0.4034 -1.5841
21384SOL     OW65592   0.684   3.941   2.446 -0.1591  0.1426 -0.6348
21384SOL    HW165593   0.715   3.852   2.463  0.4505  0.4695  0.0094
21384SOL    HW265594   0.719   3.962   2.359  0.1082 -0.0678 -0.5786
21385SOL     OW65595   7.526   7.075  11.443 -0.4098  0.1539  0.1511
21385SOL    HW165596   7.486   7.081  11.530 -1.7741 -1.1123 -0.3410
21385SOL    HW265597   7.499   6.989  11.410  1.8778 -0.3261 -0.6733
21386SOL     OW65598   2.424   6.448  12.351 -0.2585  0.5770  0.0713
21386SOL    HW165599   2.384   6.387  12.413 -0.6685  0.4846 -0.2761
21386SOL    HW265600   2.472   6.510  12.406  1.1316 -0.7169  0.3794
21387SOL     OW65601   0.472   5.194   2.540 -0.6398 -0.0967  0.0607
21387SOL    HW165602   0.452   5.128   2.474 -1.7700 -0.0953  0.3687
21387SOL    HW265603   0.406   5.180   2.608 -0.1506  0.5779  0.6907
21388SOL     OW65604   2.916   1.069  12.380 -0.1210 -0.1685 -0.1000
21388SOL    HW165605   2.855   1.112  12.319  0.7763  0.7327 -0.3985
21388SOL    HW265606   2.861   1.010  12.431 -1.3410  0.9857 -0.0172
21389SOL     OW65607   7.793   3.535   4.619 -0.0852  0.2422 -0.2149
21389SOL    HW165608   7.775   3.579   4.536  0.7189  0.5593 -0.2249
21389SOL    HW265609   7.842   3.456   4.594 -1.6731 -0.8002 -0.2164
21390SOL     OW65610   5.562   2.728   6.180 -0.1681 -0.3373 -0.2578
21390SOL    HW165611   5.589   2.700   6.092  0.6726  1.0215 -0.4714
21390SOL    HW265612   5.633   2.700   6.237  0.3647  0.7187 -0.3761
21391SOL     OW65613   2.572   0.124  10.192  0.4862  0.0325 -0.1817
21391SOL    HW165614   2.636   0.152  10.126 -1.6091  2.6715 -1.3272
21391SOL    HW265615   2.490   0.116  10.144 -0.0494 -3.9625  1.0856
21392SOL     OW65616   3.180   3.330  11.814 -0.0987 -0.2642 -0.5655
21392SOL    HW165617   3.265   3.372  11.825  0.1826 -0.9875  0.0984
21392SOL    HW265618   3.124   3.399  11.778  0.2741  0.7862  0.7782
21393SOL     OW65619   5.317   3.613   8.409 -0.6119 -0.1034  0.2490
21393SOL    HW165620   5.255   3.546   8.439 -0.4711 -0.2875  0.1303
21393SOL    HW265621   5.398   3.592   8.455 -0.3748 -0.4270 -0.3071
21394SOL     OW65622   6.384   1.646   9.093 -0.1053  0.2052 -0.1320
21394SOL    HW165623   6.424   1.638   9.180 -0.5307  0.2006  0.0659
21394SOL    HW265624   6.392   1.739   9.071  1.5872 -0.0564 -0.8641
21395SOL     OW65625   4.121   3.506   1.647 -0.1089  0.0203 -0.5402
21395SOL    HW165626   4.075   3.591   1.646 -1.0049 -0.4514 -1.1513
21395SOL    HW265627   4.207   3.526   1.684  0.4098  1.5688 -2.3521
21396SOL     OW65628   1.357   1.109   7.703  0.3768  0.2784  0.5529
21396SOL    HW165629   1.358   1.196   7.741  1.4826  0.8535 -0.7090
21396SOL    HW265630   1.450   1.084   7.697  0.1031 -0.7564  0.4084
21397SOL     OW65631   2.202   2.320  11.339 -0.4375  0.0670  0.7228
21397SOL    HW165632   2.232   2.351  11.254  0.7146  1.5394  1.5976
21397SOL    HW265633   2.164   2.234  11.322 -0.2773  0.3429 -1.2627
21398SOL     OW65634   1.965   0.648   1.082 -0.1673  0.1767 -0.3823
21398SOL    HW165635   1.991   0.699   1.005 -0.8597 -0.7635 -1.2547
21398SOL    HW265636   1.876   0.675   1.100 -0.2323 -0.0821 -0.3094
21399SOL     OW65637   0.910   3.410   8.344  0.0287  0.7218 -0.1113
21399SOL    HW165638   0.854   3.436   8.417 -1.0406  1.5550 -1.1749
21399SOL    HW265639   0.861   3.438   8.266  0.2507 -1.8266 -1.2433
21400SOL     OW65640   6.022   5.079  11.692 -0.5691 -0.4915 -0.0627
21400SOL    HW165641   6.066   5.144  11.747 -0.2433 -0.8627  0.1190
21400SOL    HW265642   6.092   5.037  11.644 -0.8194 -0.4315 -0.4834
21401SOL     OW65643   1.738   4.918   2.745 -0.3401  0.4250 -0.2148
21401SOL    HW165644   1.739   5.001   2.698  1.0102 -0.3569 -1.6908
21401SOL    HW265645   1.688   4.859   2.688 -1.1739  0.1683  0.7520
21402SOL     OW65646   4.500   5.938   8.166  0.0277  0.2808  0.2467
21402SOL    HW165647   4.417   5.985   8.154  0.5602  1.1722 -0.0847
21402SOL    HW265648   4.492   5.861   8.111 -0.9367 -0.1248  0.9287
21403SOL     OW65649   0.723   2.066  10.045 -0.3364  0.0346 -0.1895
21403SOL    HW165650   0.642   2.031  10.009  0.3802 -1.6543 -0.2639
21403SOL    HW265651   0.789   1.998  10.027  0.7689  0.6792  1.1805
21404SOL     OW65652   6.191   4.797  11.861  0.2725 -0.3583 -0.0038
21404SOL    HW165653   6.263   4.812  11.922  0.9439  0.3130 -0.9307
21404SOL    HW265654   6.234   4.786  11.776 -0.5612 -2.4268 -0.2106
21405SOL     OW65655   6.015   1.461   1.810  0.1576 -0.0426  0.1052
21405SOL    HW165656   5.924   1.484   1.827  0.0843 -0.1467 -0.1535
21405SOL    HW265657   6.064   1.542   1.824  0.0286  0.0070  0.2667
21406SOL     OW65658   2.977   6.426   9.880 -0.4156 -0.6000 -0.2798
21406SOL    HW165659   3.002   6.517   9.895  0.6692 -0.9919  0.3968
21406SOL    HW265660   2.981   6.385   9.967 -1.1858 -1.2289 -0.5275
21407SOL     OW65661   2.333   1.058   3.325  0.0889 -0.2459 -0.5128
21407SOL    HW165662   2.264   1.017   3.273 -0.1785  0.5447 -0.7812
21407SOL    HW265663   2.343   0.999   3.400 -1.3815 -0.0058 -0.0990
21408SOL     OW65664   0.098   2.035   8.482 -0.5768  0.4125  0.1540
21408SOL    HW165665   0.155   2.105   8.451 -1.6597  0.7318 -1.2359
21408SOL    HW265666   0.155   1.958   8.487  0.0483  0.7846 -0.8989
21409SOL     OW65667   7.204   6.558  11.929 -0.2123  0.8611 -0.0287
21409SOL    HW165668   7.261   6.612  11.874  2.4025 -2.0189 -0.5019
21409SOL    HW265669   7.150   6.509  11.867  0.3357  0.0611  0.1034
21410SOL     OW65670   7.581   4.087   4.109  0.1205 -0.8797  0.3946
21410SOL    HW165671   7.546   4.067   4.023 -0.8071 -0.7540  0.7320
21410SOL    HW265672   7.529   4.162   4.140  0.4248 -0.9308  1.0615
21411SOL     OW65673   6.184   5.734  10.718 -0.0466 -0.2012  0.2561
21411SOL    HW165674   6.123   5.808  10.716  0.5555  0.3396  1.1136
21411SOL    HW265675   6.220   5.730  10.629 -0.0000  0.6056  0.2360
21412SOL     OW65676   3.722   2.840   1.729  0.5649 -0.5142 -0.3943
21412SOL    HW165677   3.723   2.823   1.635 -1.6892  1.4957 -0.8742
21412SOL    HW265678   3.633   2.818   1.756  0.4348  1.2242  0.7440
21413SOL     OW65679   4.598   2.118  11.743 -0.0942  0.4064 -0.5240
21413SOL    HW165680   4.521   2.155  11.787  0.5929  1.9565 -0.5440
21413SOL    HW265681   4.668   2.181  11.762  1.4691 -1.5083  0.4302
21414SOL     OW65682   7.847   6.127  11.097 -0.0144 -0.0283 -0.2441
21414SOL    HW165683   7.934   6.159  11.072 -0.2423 -0.6468 -1.9664
21414SOL    HW265684   7.791   6.152  11.024 -1.4100  0.7314  1.0233
21415SOL     OW65685   5.664   5.276   5.568  0.1545  0.5300 -0.4265
21415SOL    HW165686   5.714   5.273   5.650  0.2095 -0.0710 -0.4740
21415SOL    HW265687   5.713   5.220   5.509 -0.0880  0.6660 -0.7588
21416SOL     OW65688   6.439   2.096   4.719 -0.1091  0.1927 -0.3518
21416SOL    HW165689   6.347   2.083   4.694  0.2390  0.3790 -1.7827
21416SOL    HW265690   6.464   2.178   4.678  1.0127 -0.4135 -0.9311
21417SOL     OW65691   2.715   7.320   6.309  0.8154  0.1649  0.1678
21417SOL    HW165692   2.710   7.401   6.360  1.1615  0.5551 -0.4089
21417SOL    HW265693   2.786   7.271   6.350  1.0041  0.4160  0.1425
21418SOL     OW65694   0.417   1.915   6.135 -0.3567 -0.7018 -0.1758
21418SOL    HW165695   0.395   1.877   6.220  0.2059 -0.1575  0.2152
21418SOL    HW265696   0.491   1.863   6.104  1.2373  0.7772  0.9192
21419SOL     OW65697   0.510   7.582  11.054 -0.0671 -0.1937 -0.2923
21419SOL    HW165698   0.508   7.663  11.004  1.7349 -0.2258 -0.4806
21419SOL    HW265699   0.518   7.513  10.987 -1.0195 -0.4937 -0.1079
21420SOL     OW65700   5.809   7.594  10.208 -0.2181 -0.1286 -0.1590
21420SOL    HW165701   5.772   7.526  10.263  0.6491 -0.5593 -0.0933
21420SOL    HW265702   5.787   7.567  10.119  2.0421 -1.7404 -0.3052
21421SOL     OW65703   2.591   3.398   0.381  0.5152 -0.3566 -0.5946
21421SOL    HW165704   2.609   3.310   0.412  0.5768 -0.9374 -2.1972
21421SOL    HW265705   2.495   3.401   0.372  0.4017  0.1652  0.6106
21422SOL     OW65706   3.174   3.901   0.175 -0.0786  0.2538  0.0869
21422SOL    HW165707   3.085   3.934   0.178 -0.0733  0.2606  0.1930
21422SOL    HW265708   3.192   3.885   0.083 -0.4911 -0.5524  0.1328
21423SOL     OW65709   1.343   3.013   0.734  0.7696  0.1148  0.0283
21423SOL    HW165710   1.282   2.982   0.667  0.5885 -1.2421  0.7838
21423SOL    HW265711   1.344   2.944   0.800  1.6396  0.9987  0.9941
21424SOL     OW65712   4.380   6.281   5.594 -0.0058  0.2706 -0.1493
21424SOL    HW165713   4.353   6.203   5.545  1.3015  0.0268 -0.5251
21424SOL    HW265714   4.299   6.330   5.607 -0.4916  0.0665 -2.0704
21425SOL     OW65715   0.426   6.946   5.345 -0.1775 -0.6926 -0.1673
21425SOL    HW165716   0.430   7.017   5.409 -0.4680 -1.7435  1.0595
21425SOL    HW265717   0.509   6.900   5.355  0.2016 -0.2681 -1.2785
21426SOL     OW65718   7.539   5.427   3.747  0.1096 -0.0202  0.0936
21426SOL    HW165719   7.447   5.453   3.739 -0.0309 -0.7864 -1.0181
21426SOL    HW265720   7.588   5.501   3.712 -0.0262  0.6975  1.3594
21427SOL     OW65721   3.961   7.559  11.748 -0.0268 -0.2399 -0.4162
21427SOL    HW165722   4.054   7.584  11.751 -0.3636  1.0494 -0.3875
21427SOL    HW265723   3.918   7.618  11.809 -0.9301 -0.5919 -0.7001
21428SOL     OW65724   4.392   0.828  11.502 -0.1346  0.4924 -0.4038
21428SOL    HW165725   4.414   0.739  11.474  0.1164 -0.5253  2.6690
21428SOL    HW265726   4.297   0.833  11.494 -0.1079  0.1367 -1.0316
21429SOL     OW65727   6.573   6.865  10.962 -0.4897  0.1060  0.3427
21429SOL    HW165728   6.646   6.807  10.985 -0.4156 -0.5089 -1.3117
21429SOL    HW265729   6.577   6.935  11.027  2.6042  0.9901 -0.6321
21430SOL     OW65730   3.889   6.074   2.740 -0.0902  0.2260  0.1765
21430SOL    HW165731   3.918   6.023   2.665  0.5710  0.2652  0.4052
21430SOL    HW265732   3.964   6.127   2.765  0.1011 -0.6404  1.5969
21431SOL     OW65733   6.829   6.678   2.472 -0.5899  0.8295  0.1265
21431SOL    HW165734   6.863   6.591   2.492  1.4574  1.5701  0.0357
21431SOL    HW265735   6.756   6.690   2.534 -0.0931 -0.4397  0.9851
21432SOL     OW65736   6.769   2.690   2.883 -0.6346  0.7969 -0.3875
21432SOL    HW165737   6.684   2.650   2.862 -0.7942  1.2287 -0.5964
21432SOL    HW265738   6.815   2.694   2.799  0.4312 -1.2893  0.0471
21433SOL     OW65739   1.962   2.748   7.863 -1.0569 -0.0498  0.8108
21433SOL    HW165740   1.892   2.707   7.812 -1.3934 -0.1130  1.3078
21433SOL    HW265741   1.947   2.717   7.953 -1.0657  0.8317  1.1210
21434SOL     OW65742   3.362   7.478   4.538  0.1084 -0.4263 -0.6545
21434SOL    HW165743   3.299   7.511   4.602 -0.4621 -0.4245 -1.2207
21434SOL    HW265744   3.310   7.453   4.462  0.8414  0.2213 -1.4002
21435SOL     OW65745   0.246   0.279   9.842  0.2486 -0.3128 -0.5841
21435SOL    HW165746   0.177   0.228   9.799 -0.0036 -0.8972  0.4722
21435SOL    HW265747   0.317   0.283   9.778 -0.2323 -0.8970 -1.1662
21436SOL     OW65748   1.873   6.255   1.395  0.0264 -0.1204  0.1923
21436SOL    HW165749   1.964   6.278   1.375  0.2942 -1.5694 -0.3509
21436SOL    HW265750   1.827   6.268   1.312  0.0002 -0.6084  0.1277
21437SOL     OW65751   7.689   5.258   4.952 -0.6990  0.0261 -0.7280
21437SOL    HW165752   7.674   5.353   4.948  0.4763  0.2824  0.2957
21437SOL    HW265753   7.754   5.242   4.883  2.4848  0.7547  1.8873
21438SOL     OW65754   0.966   1.221   7.339 -0.1456 -0.3803  0.1089
21438SOL    HW165755   0.979   1.126   7.337 -1.8271 -0.6677  1.2154
21438SOL    HW265756   1.024   1.252   7.409 -0.6535 -0.7892  0.7145
21439SOL     OW65757   5.619   5.732   7.039  0.5778  0.2234  0.1563
21439SOL    HW165758   5.705   5.734   6.997  0.7651 -0.9323  0.4351
21439SOL    HW265759   5.571   5.805   6.999  2.0480  1.6198  0.8417
21440SOL     OW65760   1.803   1.482  11.984  0.2184 -0.0938 -0.1557
21440SOL    HW165761   1.861   1.500  11.910 -0.2468  1.5581 -0.1587
21440SOL    HW265762   1.748   1.561  11.991 -1.9579 -1.5265 -0.0982
21441SOL     OW65763   6.996   7.003   1.694  0.2402  0.2907 -0.0989
21441SOL    HW165764   6.940   6.981   1.619 -1.3586  3.8518 -0.1568
21441SOL    HW265765   7.061   7.063   1.659  0.5117  0.7057  1.0719
21442SOL     OW65766   2.475   7.664  10.019 -0.2965  0.2504  0.5086
21442SOL    HW165767   2.546   7.642  10.078 -0.8937  0.5595  1.3522
21442SOL    HW265768   2.517   7.712   9.947  0.3204  0.5396  1.0625
21443SOL     OW65769   1.290   5.888  11.429 -0.1354 -0.2566 -0.0931
21443SOL    HW165770   1.374   5.914  11.466 -0.3839 -1.0256  1.0872
21443SOL    HW265771   1.272   5.953  11.362  1.7047 -0.4479 -0.8385
21444SOL     OW65772   7.259   3.725   0.600 -0.2897  0.2484 -0.0459
21444SOL    HW165773   7.299   3.797   0.648 -2.3988  1.2996  0.2369
21444SOL    HW265774   7.251   3.655   0.664  3.0765 -0.8812 -0.6700
21445SOL     OW65775   1.862   1.708   7.315 -0.0712 -0.5143  0.2323
21445SOL    HW165776   1.902   1.706   7.228 -1.6469 -0.9858 -0.5246
21445SOL    HW265777   1.780   1.660   7.304 -0.3429 -0.4966  1.9677
21446SOL     OW65778   1.211   5.545   7.394  1.0706  0.0918  0.5484
21446SOL    HW165779   1.261   5.463   7.397  0.8105 -0.0884  0.0379
21446SOL    HW265780   1.120   5.518   7.382  1.1542  0.4722 -1.3332
21447SOL     OW65781   3.588   0.248   9.839  0.2118 -0.3792 -0.1711
21447SOL    HW165782   3.601   0.343   9.847  2.6699 -0.7528  1.0742
21447SOL    HW265783   3.640   0.210   9.909 -0.9921 -2.6912 -0.4192
21448SOL     OW65784   0.508   4.582   3.395 -0.2539 -0.3765  0.2575
21448SOL    HW165785   0.469   4.497   3.374  1.0637 -0.8563 -0.3940
21448SOL    HW265786   0.556   4.566   3.476 -0.0405 -0.2488  0.1576
21449SOL     OW65787   2.903   2.703   0.926  0.2256 -0.4474  0.0762
21449SOL    HW165788   2.885   2.640   0.996  1.0439 -1.5923 -0.6944
21449SOL    HW265789   2.864   2.785   0.956 -0.3242 -1.1650  1.4013
21450SOL     OW65790   3.625   2.597   5.858  0.3849  0.0932  0.0558
21450SOL    HW165791   3.561   2.573   5.925  0.5676 -1.7046 -0.3716
21450SOL    HW265792   3.573   2.638   5.789 -0.5102 -2.0414 -0.6399
21451SOL     OW65793   1.666   2.772   6.362 -0.0114 -0.0352  0.7421
21451SOL    HW165794   1.691   2.754   6.453 -0.1298  0.9672  0.9788
21451SOL    HW265795   1.640   2.864   6.361  1.4145  0.4015 -0.6112
21452SOL     OW65796   1.048   2.608   7.492  0.1942  0.0506 -0.3185
21452SOL    HW165797   0.970   2.571   7.450  1.2749 -1.3130 -1.2410
21452SOL    HW265798   1.047   2.572   7.581 -0.2256  0.0398 -0.3271
21453SOL     OW65799   7.045   7.733  12.365 -0.2036 -0.2105  0.5714
21453SOL    HW165800   7.044   7.827  12.382  1.1188  0.2621 -1.6613
21453SOL    HW265801   6.960   7.715  12.325 -0.4347  0.0343  0.9443
21454SOL     OW65802   1.995   6.253   5.955 -0.1662 -0.3251 -0.0480
21454SOL    HW165803   2.087   6.253   5.982 -0.4790  0.0326  1.0942
21454SOL    HW265804   1.984   6.172   5.906  1.0243  0.1673 -1.1845
21455SOL     OW65805   4.321   5.082   0.295  0.2040  0.6395  0.1207
21455SOL    HW165806   4.406   5.062   0.256  0.6228  0.4428  1.1041
21455SOL    HW265807   4.320   5.033   0.377 -1.2341 -0.0622 -0.2968
21456SOL     OW65808   3.859   5.951   7.526 -0.2052 -0.4318 -0.9418
21456SOL    HW165809   3.778   5.918   7.488 -0.4098 -0.5397 -0.4128
21456SOL    HW265810   3.914   5.873   7.538  0.4831 -0.2255 -2.4627
21457SOL     OW65811   1.866   2.746  10.740  0.2004  0.2424 -0.4296
21457SOL    HW165812   1.916   2.768  10.818 -0.4387 -0.0020  0.0647
21457SOL    HW265813   1.802   2.682  10.770  0.9591 -1.0655 -1.4896
21458SOL     OW65814   0.521   3.835   3.153  0.5259  0.0718 -0.5623
21458SOL    HW165815   0.438   3.789   3.155  0.0022  1.0115 -0.2482
21458SOL    HW265816   0.554   3.820   3.064  0.8879 -1.7622 -0.1640
21459SOL     OW65817   1.104   0.930   1.812  0.0761 -0.1643  0.2088
21459SOL    HW165818   1.055   0.914   1.892  0.5681 -1.0506  0.3457
21459SOL    HW265819   1.156   0.851   1.799  0.4299  0.1956 -0.6801
21460SOL     OW65820   5.966   4.330   5.145  0.4653  0.1526  0.3883
21460SOL    HW165821   5.873   4.315   5.132  0.0029  1.8458  1.3780
21460SOL    HW265822   5.979   4.422   5.120  1.8441 -0.0352  0.3390
21461SOL     OW65823   7.840   0.046   7.525  0.0535 -0.1263 -1.3760
21461SOL    HW165824   7.771   0.101   7.489  1.9343  2.6421 -1.0634
21461SOL    HW265825   7.892   0.105   7.579  1.3423 -2.6005  0.3024
21462SOL     OW65826   7.274   5.856   8.522 -0.2314 -0.3684  0.2550
21462SOL    HW165827   7.365   5.880   8.504 -1.0063  0.5443 -3.3184
21462SOL    HW265828   7.272   5.761   8.520  0.6632 -0.3913  0.4838
21463SOL     OW65829   0.581   3.001  12.012  0.3113 -0.5427  0.1593
21463SOL    HW165830   0.592   2.964  11.924  3.1497  1.1218 -0.3354
21463SOL    HW265831   0.616   3.090  12.004  0.9851 -0.4613  3.0461
21464SOL     OW65832   4.918   4.668   9.269  0.4970 -0.0756 -0.2623
21464SOL    HW165833   5.001   4.628   9.244  0.2936 -0.8319  0.2539
21464SOL    HW265834   4.871   4.600   9.317 -2.0440 -0.9996 -3.6823
21465SOL     OW65835   5.319   1.649   2.263 -0.1102  0.3471  0.1146
21465SOL    HW165836   5.243   1.701   2.290  0.2138  0.1787  1.4100
21465SOL    HW265837   5.352   1.693   2.185 -2.0110 -0.0461 -0.9606
21466SOL     OW65838   3.179   5.116   5.986  0.0673 -0.0856  0.4831
21466SOL    HW165839   3.161   5.186   6.049  2.4201  0.9110  0.1224
21466SOL    HW265840   3.218   5.046   6.039 -1.3297 -0.7760  0.6667
21467SOL     OW65841   4.965   1.504   7.699 -0.3746 -0.3771 -0.4387
21467SOL    HW165842   4.888   1.471   7.745 -0.0750  0.7360  0.9138
21467SOL    HW265843   4.932   1.575   7.644 -0.1543  1.0434  1.1941
21468SOL     OW65844   6.419   3.781   6.803 -0.1903 -0.4443 -0.0361
21468SOL    HW165845   6.450   3.871   6.816 -0.2422 -0.4808  0.3791
21468SOL    HW265846   6.499   3.728   6.806 -0.1352 -0.3893 -0.5201
21469SOL     OW65847   6.139   5.274   9.727 -0.2505 -0.3916 -0.4078
21469SOL    HW165848   6.194   5.333   9.675 -0.4222 -0.7987 -1.0528
21469SOL    HW265849   6.201   5.214   9.768 -0.1653 -0.4918 -0.6813
21470SOL     OW65850   1.105   0.667   3.820 -0.3281  0.1236  0.2768
21470SOL    HW165851   1.109   0.605   3.748 -0.9350 -0.0625  0.4010
21470SOL    HW265852   1.193   0.705   3.824  0.4571 -1.6765  1.0552
21471SOL     OW65853   1.757   2.603   4.099 -0.4261  0.3811 -0.2134
21471SOL    HW165854   1.842   2.601   4.142  0.1533 -1.9700 -1.3300
21471SOL    HW265855   1.694   2.604   4.170  0.5221 -0.0589  0.6604
21472SOL     OW65856   6.052   6.374   3.826 -0.6131  0.0988  0.2377
21472SOL    HW165857   5.957   6.369   3.817 -0.6625 -0.1651  0.8861
21472SOL    HW265858   6.068   6.379   3.920 -0.0055  0.6377  0.1219
21473SOL     OW65859   7.822   3.603   5.410  0.1056 -0.3550  0.0631
21473SOL    HW165860   7.786   3.684   5.447 -0.0372 -0.8695  1.0827
21473SOL    HW265861   7.909   3.596   5.449  0.3346 -0.4034 -0.4598
21474SOL     OW65862   2.607   5.520   2.989 -0.3231 -0.3086  0.2049
21474SOL    HW165863   2.671   5.547   3.054  0.0517 -0.2283 -0.1936
21474SOL    HW265864   2.577   5.602   2.949  1.5706 -0.4834 -1.7259
21475SOL     OW65865   4.862   4.110   9.588 -0.3906  0.2468  0.4891
21475SOL    HW165866   4.940   4.110   9.644  0.8214 -0.2790 -1.1202
21475SOL    HW265867   4.808   4.181   9.622  1.6841  1.9175  0.4849
21476SOL     OW65868   7.402   5.694   5.075  0.4646  0.0951 -0.0309
21476SOL    HW165869   7.381   5.601   5.066 -2.5716  0.5907  0.7611
21476SOL    HW265870   7.413   5.725   4.985  1.2289 -0.9349 -0.3193
21477SOL     OW65871   3.254   6.582  10.110  0.0390  0.3176  0.0354
21477SOL    HW165872   3.323   6.648  10.113 -0.5244  1.1070 -2.1176
21477SOL    HW265873   3.178   6.629  10.076 -1.2641 -0.7842  1.3439
21478SOL     OW65874   1.728   1.119   3.189  0.1462 -0.1998 -0.5504
21478SOL    HW165875   1.687   1.193   3.234 -0.7087 -0.3026 -1.1204
21478SOL    HW265876   1.687   1.119   3.102  4.0692  2.0664 -2.6814
21479SOL     OW65877   6.743   3.734   0.170 -0.3985 -0.5369  0.0438
21479SOL    HW165878   6.784   3.744   0.255 -0.4055 -0.7570  0.0742
21479SOL    HW265879   6.684   3.809   0.163  0.0773 -0.1681 -0.0440
21480SOL     OW65880   0.798   4.851   3.094 -0.4200  0.2882  0.2717
21480SOL    HW165881   0.769   4.916   3.030 -0.8571 -2.2598 -2.3228
21480SOL    HW265882   0.892   4.843   3.078 -0.4943 -0.2015  0.0654
21481SOL     OW65883   2.621   4.623  10.080 -0.3200 -0.2695 -0.4852
21481SOL    HW165884   2.694   4.655  10.132 -0.8680  1.1151 -0.5271
21481SOL    HW265885   2.553   4.603  10.144 -1.1933  1.9528 -0.6113
21482SOL     OW65886   3.211   7.810   1.738 -0.2094 -0.1516  0.0494
21482SOL    HW165887   3.237   7.880   1.678 -0.4659 -0.8139 -0.8540
21482SOL    HW265888   3.125   7.837   1.770  0.2458  0.5727  0.7355
21483SOL     OW65889   0.915   2.657   0.405  0.4246  0.3488  0.1165
21483SOL    HW165890   0.919   2.578   0.351  0.0540 -0.2735  0.9703
21483SOL    HW265891   0.997   2.656   0.454  0.2468  0.2715  0.4162
21484SOL     OW65892   3.321   5.631   5.432  0.2626  0.4572  0.8976
21484SOL    HW165893   3.386   5.694   5.403  2.2576 -1.9008 -0.0799
21484SOL    HW265894   3.241   5.654   5.385  0.9881  2.0509  0.3953
21485SOL     OW65895   4.932   5.575   3.714 -0.1657 -0.3665  0.3758
21485SOL    HW165896   4.946   5.481   3.708  2.3116 -0.2087  2.2521
21485SOL    HW265897   4.938   5.595   3.807 -0.5654  1.6599  0.0188
21486SOL     OW65898   4.753   1.995   9.727  0.0012  0.2268 -0.2122
21486SOL    HW165899   4.791   2.011   9.641 -1.1342 -1.5590 -1.0886
21486SOL    HW265900   4.667   2.036   9.723 -0.4855 -0.7885 -0.3251
21487SOL     OW65901   2.570   6.788  11.247 -0.3057  0.1517 -0.3072
21487SOL    HW165902   2.483   6.782  11.288  0.0995 -0.3101  0.5155
21487SOL    HW265903   2.629   6.808  11.320  0.6623 -2.2103 -0.3529
21488SOL     OW65904   6.270   4.775   0.773  0.5619 -0.5279 -0.6299
21488SOL    HW165905   6.331   4.720   0.822  0.0600 -0.5145  0.0270
21488SOL    HW265906   6.246   4.845   0.834 -0.2946 -0.6731 -0.7857
21489SOL     OW65907   6.761   0.071   6.971  0.2593 -0.4618  0.0256
21489SOL    HW165908   6.734  -0.001   6.914  0.8525  0.3271 -1.3073
21489SOL    HW265909   6.841   0.040   7.013 -0.0282 -0.9424  0.2313
21490SOL     OW65910   0.470   3.376   6.943 -0.6572  0.2268 -0.4500
21490SOL    HW165911   0.411   3.442   6.979 -0.0912  1.2670 -1.3729
21490SOL    HW265912   0.459   3.300   7.001 -0.4731  1.4971  1.3227
21491SOL     OW65913   1.757   5.662  11.386 -0.5109 -0.0014  0.1498
21491SOL    HW165914   1.727   5.573  11.405  1.1889 -0.9287 -1.1826
21491SOL    HW265915   1.723   5.681  11.299 -2.6911  1.5902  1.2505
21492SOL     OW65916   4.364   2.377  12.133 -0.1046 -0.6077  0.1693
21492SOL    HW165917   4.404   2.344  12.214 -0.1441  0.9068  0.8467
21492SOL    HW265918   4.281   2.330  12.127 -0.1845 -0.6048  1.1100
21493SOL     OW65919   1.861   6.285   8.500 -0.0030 -0.1784 -0.0377
21493SOL    HW165920   1.848   6.198   8.537 -0.4763 -0.3007 -0.4776
21493SOL    HW265921   1.951   6.283   8.467 -0.3583 -0.8697 -1.0034
21494SOL     OW65922   5.919   2.598   5.113  0.7405 -0.0951  0.1834
21494SOL    HW165923   5.831   2.564   5.128  1.4266 -2.1262 -0.0644
21494SOL    HW265924   5.911   2.693   5.124 -1.4408 -0.2461  0.2429
21495SOL     OW65925   5.549   5.697   4.912  0.0038  0.3662  0.5005
21495SOL    HW165926   5.524   5.606   4.929 -0.8450  0.3563 -0.6970
21495SOL    HW265927   5.608   5.692   4.837  0.2732  0.7773  0.6805
21496SOL     OW65928   2.206   0.920   0.998  0.1817 -0.3777 -0.2741
21496SOL    HW165929   2.202   0.838   0.949 -0.7777 -0.7973  0.4856
21496SOL    HW265930   2.121   0.962   0.984 -0.3694 -0.8047  1.5052
21497SOL     OW65931   3.467   2.895   9.364  0.0502  0.2645  0.5740
21497SOL    HW165932   3.533   2.962   9.348  0.5538 -0.2352  0.5219
21497SOL    HW265933   3.388   2.944   9.387  0.0935  0.9178 -0.5694
21498SOL     OW65934   2.258   0.083  11.550  0.1201 -0.0791 -0.7766
21498SOL    HW165935   2.290   0.063  11.638 -0.3456  0.1077 -0.5629
21498SOL    HW265936   2.266   0.001  11.503  1.9279  0.2015 -1.0521
21499SOL     OW65937   2.175   0.096   7.825  0.0301 -0.1067  0.4757
21499SOL    HW165938   2.248   0.047   7.864  0.0093  0.8517  1.8065
21499SOL    HW265939   2.098   0.064   7.872 -0.1487  0.2541  0.4255
21500SOL     OW65940   7.765   3.651  11.315 -0.1406 -0.0989 -0.2680
21500SOL    HW165941   7.693   3.684  11.369 -0.1961  0.1630 -0.5004
21500SOL    HW265942   7.790   3.725  11.260  0.6951 -0.0084  0.2193
21501SOL     OW65943   0.984   3.789  12.273 -0.3188 -0.1403 -0.3874
21501SOL    HW165944   1.006   3.836  12.354  1.4873 -1.1198 -0.2728
21501SOL    HW265945   1.023   3.703  12.284 -0.2471 -0.3734 -2.2267
21502SOL     OW65946   0.036   0.166   2.717  0.8919  0.4588  0.3635
21502SOL    HW165947   0.106   0.121   2.764  1.5697  0.1315 -0.9255
21502SOL    HW265948   0.081   0.215   2.648 -0.2556 -1.3262 -1.7633
21503SOL     OW65949   4.169   2.430   7.854 -0.3698  0.0768 -0.2900
21503SOL    HW165950   4.151   2.461   7.943 -2.9962  1.1676 -1.1043
21503SOL    HW265951   4.248   2.377   7.863 -0.5056  0.1924  2.6625
21504SOL     OW65952   5.400   6.523  10.492  0.0860 -0.0896  0.6032
21504SOL    HW165953   5.477   6.466  10.486  0.7344  0.7852  0.3654
21504SOL    HW265954   5.424   6.589  10.556 -0.6936 -0.1195  0.9408
21505SOL     OW65955   0.840   1.069   4.913  0.2118  0.9789 -0.2127
21505SOL    HW165956   0.884   1.089   4.831  0.5879 -0.2655 -0.3382
21505SOL    HW265957   0.911   1.053   4.975  0.1026 -2.8181 -0.8437
21506SOL     OW65958   3.391   3.012   6.427 -0.1290  0.3483  0.0706
21506SOL    HW165959   3.433   3.092   6.395 -0.2043  0.7690  0.9794
21506SOL    HW265960   3.313   3.043   6.473 -0.6252 -0.3204 -0.3085
21507SOL     OW65961   3.426   5.739   3.422 -0.0680 -0.0516 -0.7181
21507SOL    HW165962   3.392   5.806   3.482 -1.3649  0.3091 -1.7848
21507SOL    HW265963   3.424   5.782   3.336  1.8558 -0.5114 -1.0282
21508SOL     OW65964   5.870   5.277   6.697  0.0115 -0.2946 -0.2173
21508SOL    HW165965   5.825   5.239   6.773  0.3288  0.0630  0.1519
21508SOL    HW265966   5.806   5.273   6.627 -0.1851 -0.9057 -0.0076
21509SOL     OW65967   2.367   2.241   1.498  0.0573 -0.3963  0.3928
21509SOL    HW165968   2.365   2.276   1.409 -1.5738 -1.5210 -0.0499
21509SOL    HW265969   2.405   2.311   1.551 -0.8749  1.0929 -0.8404
21510SOL     OW65970   0.091   0.139   0.687  0.9658  0.1929 -0.2971
21510SOL    HW165971   0.066   0.227   0.659 -0.3997  0.5735  1.8527
21510SOL    HW265972   0.140   0.153   0.768  1.0777 -1.0066 -0.1426
21511SOL     OW65973   6.998   6.201   0.650  0.0699 -0.4049 -0.1954
21511SOL    HW165974   7.012   6.261   0.724 -1.0945 -0.4785  0.1168
21511SOL    HW265975   6.912   6.226   0.616  0.5115 -0.5001 -1.4239
21512SOL     OW65976   0.814   1.462   6.133 -0.3774 -0.6171 -0.0646
21512SOL    HW165977   0.811   1.419   6.047 -2.4001 -0.5783 -0.0768
21512SOL    HW265978   0.817   1.391   6.196  0.2942 -0.6658 -0.1482
21513SOL     OW65979   1.622   1.993   0.332  0.2326 -0.4154  0.2789
21513SOL    HW165980   1.710   1.957   0.322  0.6302 -0.1456  2.4224
21513SOL    HW265981   1.566   1.916   0.342 -0.1711 -0.7051 -3.0528
21514SOL     OW65982   7.436   3.442   4.423 -0.1279  0.3190 -0.0755
21514SOL    HW165983   7.477   3.360   4.394 -1.8828  0.1603 -2.3768
21514SOL    HW265984   7.464   3.507   4.359 -0.9619  0.8899  0.1288
21515SOL     OW65985   2.205   1.478  10.216  0.7181 -0.2394 -0.5057
21515SOL    HW165986   2.259   1.467  10.294 -0.4033 -0.6958  0.2370
21515SOL    HW265987   2.250   1.428  10.149  0.5038 -1.8118  0.4678
21516SOL     OW65988   2.508   5.741  11.551  0.1651 -0.5768  0.4385
21516SOL    HW165989   2.506   5.782  11.637  1.0406  0.3878  0.0235
21516SOL    HW265990   2.588   5.775  11.510 -1.2760  0.6504 -1.5314
21517SOL     OW65991   1.487   1.478   0.656 -0.1248 -0.2831  0.0521
21517SOL    HW165992   1.551   1.543   0.627 -0.6295  0.7084  1.0646
21517SOL    HW265993   1.441   1.521   0.728 -0.7759 -1.6123  0.4584
21518SOL     OW65994   0.890   4.900   8.793  0.0036  0.6065 -0.5138
21518SOL    HW165995   0.861   4.978   8.745 -2.2078 -0.2362 -0.6391
21518SOL    HW265996   0.885   4.829   8.729 -0.9452 -0.1624  0.3961
21519SOL     OW65997   0.231   3.449  12.121  0.1726 -0.4719 -0.6582
21519SOL    HW165998   0.160   3.429  12.182  1.1087 -1.4325  0.1609
21519SOL    HW265999   0.305   3.474  12.177  1.2087 -1.8540 -1.3399
21520SOL     OW66000   4.200   6.755  11.450 -0.1055  0.1682  0.8384
21520SOL    HW166001   4.240   6.827  11.499  0.7868  0.1555  0.1595
21520SOL    HW266002   4.173   6.795  11.367  1.2034 -0.4426  0.0940
21521SOL     OW66003   4.971   7.464  11.340 -0.1021  0.3887 -0.2975
21521SOL    HW166004   4.936   7.385  11.381 -1.4644  1.4280  0.6237
21521SOL    HW266005   4.957   7.450  11.246  0.0393 -0.6170 -0.1853
21522SOL     OW66006   3.295   7.100   9.065 -0.0272  0.2266  0.3071
21522SOL    HW166007   3.383   7.067   9.050  0.1343  1.1005 -0.7604
21522SOL    HW266008   3.247   7.025   9.103  0.2387 -1.3581 -2.2584
21523SOL     OW66009   1.591   1.507   4.031  0.0643 -0.5667  0.7126
21523SOL    HW166010   1.629   1.473   4.112  0.5699  0.9091  1.1256
21523SOL    HW266011   1.600   1.602   4.038 -3.0395 -0.1327  0.5280
21524SOL     OW66012   6.385   6.057   7.554  0.2020 -0.1255 -0.2034
21524SOL    HW166013   6.405   6.008   7.633 -1.3934 -0.8663 -0.2265
21524SOL    HW266014   6.292   6.041   7.537  0.0943  1.3391 -1.3145
21525SOL     OW66015   5.728   3.063   7.496 -0.3107  0.4458 -0.7256
21525SOL    HW166016   5.792   2.997   7.468  0.7320  0.5940  1.1713
21525SOL    HW266017   5.777   3.145   7.495 -0.1107  0.4168  1.7314
21526SOL     OW66018   5.912   1.963   7.857  0.0926 -0.2442  0.3426
21526SOL    HW166019   5.878   2.050   7.879 -1.5159 -0.1281 -2.2490
21526SOL    HW266020   5.972   1.943   7.929  1.0623  3.2577  0.7087
21527SOL     OW66021   7.176   3.180   0.160  0.6345  0.0719  0.0671
21527SOL    HW166022   7.268   3.207   0.162  1.7370 -3.0060 -2.0782
21527SOL    HW266023   7.167   3.117   0.231 -0.1028  0.8849  0.7377
21528SOL     OW66024   0.970   7.372   1.342  0.1023 -0.7773  0.5433
21528SOL    HW166025   1.055   7.351   1.303  0.6643 -0.3524  1.5075
21528SOL    HW266026   0.932   7.288   1.365 -0.9919 -1.1828 -2.3838
21529SOL     OW66027   1.947   1.346  12.161  0.0829 -0.5756 -0.7827
21529SOL    HW166028   1.882   1.299  12.213  0.5508 -1.1225 -0.6773
21529SOL    HW266029   1.901   1.373  12.082 -0.3665 -0.6313 -0.5397
21530SOL     OW66030   3.646   0.351   2.965 -0.2878 -0.0425 -0.1137
21530SOL    HW166031   3.704   0.417   3.004 -2.4935  1.5661  0.6858
21530SOL    HW266032   3.669   0.351   2.872  0.2749  1.3485 -0.0047
21531SOL     OW66033   7.547   6.341   3.567 -0.0759 -0.2785 -0.3499
21531SOL    HW166034   7.521   6.272   3.507  0.0454  0.6203 -1.4823
21531SOL    HW266035   7.532   6.422   3.518 -0.7969  0.5407  1.1531
21532SOL     OW66036   1.195   2.285   1.441 -0.1123  0.2540  0.8216
21532SOL    HW166037   1.235   2.204   1.412 -1.0746 -0.1797  0.6549
21532SOL    HW266038   1.242   2.354   1.393  0.5093 -0.2248  0.7411
21533SOL     OW66039   1.139   1.602   9.104  0.7820 -0.5467 -0.0241
21533SOL    HW166040   1.094   1.619   9.021 -0.2090 -1.2893  0.3322
21533SOL    HW266041   1.227   1.574   9.078  0.3615 -1.1715 -0.8523
21534SOL     OW66042   7.438   4.887   2.491 -0.4924 -0.1193  0.1739
21534SOL    HW166043   7.388   4.805   2.494 -1.3624  0.4065  0.3866
21534SOL    HW266044   7.507   4.870   2.426  0.3547 -1.5653  1.3698
21535SOL     OW66045   6.762   4.092   8.258 -0.0991  0.0069  0.5462
21535SOL    HW166046   6.796   4.024   8.201  0.7545  0.5973  0.3323
21535SOL    HW266047   6.756   4.170   8.203  1.2017  0.7131  1.3410
21536SOL     OW66048   0.847   5.325   8.488  0.1010 -0.0632 -0.0228
21536SOL    HW166049   0.772   5.381   8.509  0.1827 -0.0804  0.3236
21536SOL    HW266050   0.856   5.332   8.393 -1.1098 -1.0227 -0.2421
21537SOL     OW66051   5.484   4.019  11.551 -0.0142 -0.1518  0.3881
21537SOL    HW166052   5.561   4.041  11.604  0.1017 -1.2732  0.7201
21537SOL    HW266053   5.519   4.006  11.463  0.1130 -0.2227  0.4481
21538SOL     OW66054   0.745   4.514   1.826 -0.3153 -0.2345 -0.3675
21538SOL    HW166055   0.720   4.437   1.877  0.6941 -0.5849 -0.3769
21538SOL    HW266056   0.831   4.492   1.790  0.0871  0.9831 -0.1906
21539SOL     OW66057   7.022   5.182  10.163 -0.2814 -0.4857 -0.4188
21539SOL    HW166058   7.092   5.116  10.165  1.6016  1.3859 -0.6445
21539SOL    HW266059   6.957   5.145  10.103  0.8700 -1.9890 -0.8214
21540SOL     OW66060   7.818   6.954   1.494  0.0406  0.4993 -0.2517
21540SOL    HW166061   7.910   6.929   1.500  0.2666  1.1550 -0.8616
21540SOL    HW266062   7.781   6.893   1.429 -0.4063 -0.9650  1.3071
21541SOL     OW66063   7.787   4.509  11.571 -0.4994  0.4676  0.1605
21541SOL    HW166064   7.788   4.596  11.532 -1.4809  0.1162 -0.6934
21541SOL    HW266065   7.838   4.454  11.511  1.4681  0.7380  1.4941
21542SOL     OW66066   3.423   6.263   3.727 -0.1648  0.7483 -0.0001
21542SOL    HW166067   3.433   6.225   3.814 -0.5747  1.6423  0.4412
21542SOL    HW266068   3.334   6.299   3.726 -0.4917 -0.0033 -1.0905
21543SOL     OW66069   3.664   1.860   7.860  0.2304  0.1989  0.3672
21543SOL    HW166070   3.598   1.908   7.911  0.6290 -0.0883  1.1717
21543SOL    HW266071   3.663   1.772   7.898  0.9531  0.1468  0.2757
21544SOL     OW66072   6.264   1.335  11.055  0.2279  0.3688  0.1538
21544SOL    HW166073   6.255   1.383  11.138 -0.5449  2.3160 -0.9949
21544SOL    HW266074   6.353   1.354  11.026  0.1826  0.4641  0.0774
21545SOL     OW66075   3.069   1.809   2.503  0.4255 -0.4651 -0.5928
21545SOL    HW166076   3.027   1.889   2.533 -0.5331 -1.2108  0.1120
21545SOL    HW266077   3.163   1.827   2.509  0.2858  1.3770 -2.5758
21546SOL     OW66078   1.163   0.200  11.186 -0.2149 -0.0501 -0.4301
21546SOL    HW166079   1.151   0.237  11.099  0.7349  1.4711  0.0311
21546SOL    HW266080   1.227   0.258  11.228 -2.0935  0.4839  1.9611
21547SOL     OW66081   1.985   2.213   1.881 -0.8093  0.2476  0.5081
21547SOL    HW166082   1.979   2.247   1.970 -1.3490  0.6143  0.3358
21547SOL    HW266083   2.079   2.213   1.861 -0.8543  3.1330 -0.0386
21548SOL     OW66084   7.408   7.091  12.128 -0.1514 -0.3285  0.6806
21548SOL    HW166085   7.416   7.096  12.033 -1.5107  0.6691  0.5855
21548SOL    HW266086   7.342   7.024  12.144 -1.1333  0.6521  0.8285
21549SOL     OW66087   4.572   7.192   1.939  0.7847  0.1612 -0.0804
21549SOL    HW166088   4.635   7.217   1.872  0.7637  0.4531  0.0085
21549SOL    HW266089   4.564   7.269   1.995  0.1455  0.2261 -0.2475
21550SOL     OW66090   5.309   1.872   7.860 -0.6798 -0.0333  0.2368
21550SOL    HW166091   5.262   1.828   7.789  0.4483 -0.0332 -0.5259
21550SOL    HW266092   5.242   1.885   7.927 -2.0244  0.9015 -1.2177
21551SOL     OW66093   3.009   1.152   1.639 -0.4691 -0.1857  0.2031
21551SOL    HW166094   3.095   1.117   1.616 -0.8564  0.1980 -1.9938
21551SOL    HW266095   3.028   1.239   1.674  0.1310 -0.7056  1.2104
21552SOL     OW66096   6.777   4.186   9.924 -0.1131 -0.1861 -0.5199
21552SOL    HW166097   6.812   4.275   9.930 -0.4845 -0.1283  1.3381
21552SOL    HW266098   6.729   4.185   9.841 -1.8576  2.0438  0.3566
21553SOL     OW66099   2.687   3.237   0.750 -0.0166 -0.1196  0.0381
21553SOL    HW166100   2.759   3.299   0.764 -0.8538  0.8696  0.1291
21553SOL    HW266101   2.625   3.256   0.820 -1.0952  0.1522 -0.9583
21554SOL     OW66102   0.326   3.188   8.023  0.2545  0.6633  0.2232
21554SOL    HW166103   0.417   3.216   8.016  0.9323 -1.3490  0.3622
21554SOL    HW266104   0.290   3.200   7.935  1.0005  0.3890 -0.1273
21555SOL     OW66105   0.607   1.278   3.497 -0.0489  0.5217 -0.7936
21555SOL    HW166106   0.687   1.237   3.464  0.8005 -0.0358  1.7784
21555SOL    HW266107   0.543   1.207   3.500  0.4113  0.1354  0.4035
21556SOL     OW66108   0.393   7.131  10.180  0.2797  0.5912 -0.3645
21556SOL    HW166109   0.408   7.063  10.245  2.8854  0.1325 -1.3271
21556SOL    HW266110   0.334   7.091  10.116 -2.5398  1.1331  1.6732
21557SOL     OW66111   1.877   3.984   6.096  0.3049 -0.4860  0.3520
21557SOL    HW166112   1.819   3.944   6.162 -1.6868  1.8210  0.1600
21557SOL    HW266113   1.925   4.051   6.144 -1.0859  1.1447 -0.3992
21558SOL     OW66114   6.822   6.636   1.522  0.4769  0.3203  0.5879
21558SOL    HW166115   6.823   6.716   1.575  0.3241 -1.3821  3.3496
21558SOL    HW266116   6.730   6.613   1.515  0.5058  0.4333 -0.3830
21559SOL     OW66117   5.422   7.242   7.381 -0.3107  0.0100  0.1124
21559SOL    HW166118   5.384   7.253   7.295  0.1223  0.5834 -0.0174
21559SOL    HW266119   5.455   7.329   7.404  0.2968 -0.3095  0.5052
21560SOL     OW66120   0.541   2.823   4.607 -0.5107  0.1443  0.2651
21560SOL    HW166121   0.615   2.817   4.668  0.4429 -1.4498 -0.9398
21560SOL    HW266122   0.501   2.736   4.610 -1.9722  0.8019  0.4213
21561SOL     OW66123   6.745   4.943   8.598  0.1133  0.2797  0.3279
21561SOL    HW166124   6.682   5.014   8.613  0.5434  0.7023  0.1446
21561SOL    HW266125   6.749   4.897   8.683  1.7871  2.0670  1.2924
21562SOL     OW66126   1.824   4.196   6.887 -0.2848 -0.2255 -0.0596
21562SOL    HW166127   1.800   4.126   6.948 -0.0884  0.1765  0.4874
21562SOL    HW266128   1.835   4.273   6.942  0.6618 -0.0322 -0.4911
21563SOL     OW66129   3.655   4.061   3.385  0.1332  0.0770  0.1013
21563SOL    HW166130   3.606   4.005   3.445  0.9648 -0.3587  0.3810
21563SOL    HW266131   3.683   4.003   3.315  1.0736  0.1142  0.4353
21564SOL     OW66132   5.949   3.146   6.935  0.3533 -0.0104  0.0537
21564SOL    HW166133   5.893   3.138   7.012 -1.2953 -0.5891 -1.1466
21564SOL    HW266134   5.986   3.059   6.922  0.2548 -0.0350 -0.0685
21565SOL     OW66135   4.967   3.213  11.116  0.7704 -0.2164 -0.2296
21565SOL    HW166136   4.975   3.155  11.040 -0.4704  0.0942 -0.6297
21565SOL    HW266137   4.986   3.157  11.191 -0.4408 -1.1918 -0.6027
21566SOL     OW66138   1.663   5.796  11.713 -0.4345 -0.0952  0.5484
21566SOL    HW166139   1.627   5.831  11.632 -0.5151  2.3992  1.5470
21566SOL    HW266140   1.682   5.874  11.766  2.3484 -1.4828  1.7910
21567SOL     OW66141   0.517   3.562  11.201 -0.4829 -0.6174  0.0594
21567SOL    HW166142   0.610   3.544  11.195 -0.5401 -0.8460 -0.1857
21567SOL    HW266143   0.478   3.480  11.232 -0.6742 -0.7336 -0.4716
21568SOL     OW66144   0.398   7.001   7.235 -0.2753  0.6842 -0.4837
21568SOL    HW166145   0.473   6.988   7.178 -0.3567 -0.8456 -0.3031
21568SOL    HW266146   0.430   6.978   7.323 -0.9176  0.0273 -0.4030
21569SOL     OW66147   6.798   3.148   9.856  0.9335  0.1415 -0.0691
21569SOL    HW166148   6.838   3.228   9.823  1.4005 -0.2550 -0.4787
21569SOL    HW266149   6.719   3.177   9.902  0.8895  0.8014 -0.5506
21570SOL     OW66150   0.947   3.131  11.761 -0.1221  0.0081 -0.1556
21570SOL    HW166151   0.866   3.155  11.806  0.0393  0.2996 -0.0192
21570SOL    HW266152   0.919   3.106  11.673 -0.4667 -0.8214  0.1852
21571SOL     OW66153   4.938   4.344   1.155 -0.1741 -0.3798 -0.5916
21571SOL    HW166154   4.861   4.375   1.108  0.8435  1.0185 -1.4286
21571SOL    HW266155   4.956   4.413   1.219 -0.7789 -1.6535  0.9985
21572SOL     OW66156   7.703   5.755   0.963 -0.0673  0.1383 -0.0831
21572SOL    HW166157   7.748   5.798   1.036  0.2741  0.6382 -0.5859
21572SOL    HW266158   7.648   5.824   0.924 -0.5865 -0.2377 -0.0338
21573SOL     OW66159   2.700   0.967   7.374 -0.2595  0.1530 -0.1834
21573SOL    HW166160   2.749   0.974   7.292 -2.1307 -0.0648 -1.3744
21573SOL    HW266161   2.763   0.990   7.442  1.4854 -0.1648 -1.6316
21574SOL     OW66162   3.955   1.232   1.098  0.0177 -0.0980 -0.3543
21574SOL    HW166163   3.891   1.207   1.031 -0.0108 -4.3486  0.9361
21574SOL    HW266164   3.953   1.328   1.099 -3.3949  0.0699 -3.0829
21575SOL     OW66165   7.051   5.086  10.921 -0.5817 -0.0197  0.2556
21575SOL    HW166166   6.958   5.081  10.899 -1.1237  1.7107  1.9004
21575SOL    HW266167   7.088   5.145  10.855 -0.8290  0.0312  0.1630
21576SOL     OW66168   6.599   3.609   1.743  0.3295 -0.1125  0.1091
21576SOL    HW166169   6.685   3.614   1.699 -0.9471 -0.2917 -2.6324
21576SOL    HW266170   6.558   3.693   1.722 -1.0355 -0.9478 -0.6524
21577SOL     OW66171   3.918   6.957   9.979  0.0345 -0.7632  0.7561
21577SOL    HW166172   3.850   6.901  10.016  1.3606 -2.4682  0.7811
21577SOL    HW266173   3.964   6.992  10.055  1.8213 -3.0773  0.8640
21578SOL     OW66174   4.134   2.784  10.447  0.3939 -0.2992 -0.4910
21578SOL    HW166175   4.183   2.853  10.403 -1.0483  0.2737 -1.2642
21578SOL    HW266176   4.172   2.703  10.415 -0.1353  0.1138 -2.2817
21579SOL     OW66177   2.744   4.468   0.503  0.0134 -0.0247 -0.4575
21579SOL    HW166178   2.771   4.419   0.426  0.5540 -1.3804  0.5527
21579SOL    HW266179   2.758   4.408   0.576 -2.8730  0.2925  0.4816
21580SOL     OW66180   5.499   3.834   5.026 -0.0216 -0.0461 -0.2739
21580SOL    HW166181   5.585   3.853   5.064 -0.1774  1.6306 -0.6929
21580SOL    HW266182   5.518   3.790   4.944  0.4238 -0.1847 -0.0990
21581SOL     OW66183   4.349   1.830   3.344  0.8452 -0.3581  0.5272
21581SOL    HW166184   4.396   1.854   3.264  2.9613 -3.6908  0.5889
21581SOL    HW266185   4.412   1.843   3.414 -1.0443  2.6840  1.8642
21582SOL     OW66186   2.428   7.501   3.538  0.0523  0.5450  0.1608
21582SOL    HW166187   2.360   7.523   3.474  0.4901 -2.2728 -1.4713
21582SOL    HW266188   2.383   7.507   3.623 -1.8497  0.1806 -0.7519
21583SOL     OW66189   6.437   1.151   7.827  0.2288 -0.0451  0.3173
21583SOL    HW166190   6.487   1.086   7.876 -0.4883 -2.0432 -1.4177
21583SOL    HW266191   6.501   1.217   7.801  1.3877 -1.0317  0.5702
21584SOL     OW66192   6.352   7.011  11.985  0.1028 -0.0828 -0.1431
21584SOL    HW166193   6.344   7.098  11.944 -0.1935  0.7032  1.5038
21584SOL    HW266194   6.333   6.950  11.914 -2.6999  1.2709 -0.7151
21585SOL     OW66195   5.375   1.673   4.148 -0.0629  0.3997  0.5920
21585SOL    HW166196   5.413   1.586   4.133 -0.8139  0.4174 -2.0030
21585SOL    HW266197   5.336   1.667   4.235  1.6039 -1.1877  1.3107
21586SOL     OW66198   2.850   4.131   7.160 -0.3533 -0.6329  0.2943
21586SOL    HW166199   2.817   4.046   7.130 -0.5335 -0.7349  0.7696
21586SOL    HW266200   2.818   4.138   7.250 -0.9698  0.2794  0.0085
21587SOL     OW66201   2.824   0.624  10.472  0.0973 -0.0277  0.0856
21587SOL    HW166202   2.892   0.587  10.417  0.3289  1.7901 -0.9073
21587SOL    HW266203   2.871   0.669  10.542  0.1196  3.0837 -1.7733
21588SOL     OW66204   0.543   2.366   1.945  0.2770 -0.0684 -0.3550
21588SOL    HW166205   0.515   2.357   1.854  2.3524 -0.5540 -0.9932
21588SOL    HW266206   0.506   2.289   1.988 -1.6981  0.7510 -0.4635
21589SOL     OW66207   0.148   5.864  11.977 -0.2389 -0.3970 -0.1244
21589SOL    HW166208   0.182   5.829  11.895  1.1489  0.2881  0.1372
21589SOL    HW266209   0.086   5.798  12.007  0.1764 -1.2518 -1.0916
21590SOL     OW66210   0.947   5.670  12.151 -0.5840  0.1513  0.0479
21590SOL    HW166211   0.921   5.756  12.119  0.3299  0.7833  0.9659
21590SOL    HW266212   0.866   5.619  12.151 -0.9665  0.7051 -1.3879
21591SOL     OW66213   3.936   1.854   0.319 -0.4454  0.4307  0.2161
21591SOL    HW166214   4.020   1.811   0.335 -0.4371  0.8384  1.3769
21591SOL    HW266215   3.919   1.840   0.226  1.1153  0.6983 -0.1320
21592SOL     OW66216   6.612   2.319   5.911 -0.2485  0.4573  0.0648
21592SOL    HW166217   6.516   2.319   5.908 -0.3386  0.6094  1.7978
21592SOL    HW266218   6.636   2.411   5.918  0.1990  0.6418 -2.7311
21593SOL     OW66219   7.710   2.434  11.734  0.1470 -0.3079  0.1195
21593SOL    HW166220   7.717   2.480  11.818  1.3805  0.9128 -0.6209
21593SOL    HW266221   7.628   2.466  11.697  0.0693 -0.1357  0.4364
21594SOL     OW66222   3.970   0.665   6.016 -0.4063  0.6613  0.4588
21594SOL    HW166223   3.986   0.636   5.926 -2.8043  0.6894 -0.0528
21594SOL    HW266224   4.011   0.752   6.021  0.8729  0.1161 -0.1674
21595SOL     OW66225   7.441   6.266   2.669 -0.6824  0.2058 -0.4809
21595SOL    HW166226   7.399   6.217   2.740  0.9714 -1.0046 -0.2845
21595SOL    HW266227   7.423   6.214   2.590 -2.5517  1.5666 -1.0264
21596SOL     OW66228   7.063   1.647   1.232  0.4799  0.3758  0.4062
21596SOL    HW166229   7.064   1.742   1.220 -1.6845  0.3676 -0.3708
21596SOL    HW266230   7.028   1.635   1.320  1.0729  0.2943  0.6323
21597SOL     OW66231   7.413   7.580   6.872 -0.1360  0.6109 -0.1745
21597SOL    HW166232   7.338   7.567   6.931 -1.3509  2.4690 -1.2123
21597SOL    HW266233   7.385   7.542   6.789  1.1884 -1.1106  0.1125
21598SOL     OW66234   4.508   2.521  11.609 -0.2568 -0.2109  0.4809
21598SOL    HW166235   4.453   2.543  11.683  0.2731  0.9585  0.5524
21598SOL    HW266236   4.448   2.488  11.542 -1.1890  1.8085  0.2529
21599SOL     OW66237   7.832   3.449   9.074  0.2643 -0.6057 -0.2519
21599SOL    HW166238   7.808   3.404   9.155  1.4324  1.2240  1.1990
21599SOL    HW266239   7.750   3.461   9.028 -0.2363 -3.1341 -0.1767
21600SOL     OW66240   1.109   0.281   5.817  0.1864 -0.4022 -0.1813
21600SOL    HW166241   1.172   0.238   5.761  0.8264 -1.1831  1.0912
21600SOL    HW266242   1.067   0.210   5.866 -0.6241  0.2152  0.0433
21601SOL     OW66243   2.212   2.878   9.708  0.2500 -0.5006 -0.3991
21601SOL    HW166244   2.166   2.948   9.662  1.4527 -0.9029 -2.3293
21601SOL    HW266245   2.144   2.813   9.727 -0.7676  0.8490  0.8815
21602SOL     OW66246   0.047   5.492   7.649 -0.3509  0.6339 -0.4872
21602SOL    HW166247   0.100   5.511   7.726  0.2956 -0.7716 -0.5546
21602SOL    HW266248   0.016   5.577   7.619 -0.4699  1.2241  1.2189
21603SOL     OW66249   6.917   7.301   6.771  0.3222 -0.0616 -0.2232
21603SOL    HW166250   6.913   7.397   6.769  0.0366 -0.0445  0.7360
21603SOL    HW266251   6.906   7.278   6.863  0.4520 -1.0202 -0.4328
21604SOL     OW66252   5.993   1.931   5.517  0.1609 -0.1208  0.3862
21604SOL    HW166253   5.897   1.932   5.524  0.0645 -1.4817 -0.3837
21604SOL    HW266254   6.015   2.013   5.474 -0.5628  0.6632  1.4629
21605SOL     OW66255   7.397   2.329   0.197  0.1868  0.5494 -0.2854
21605SOL    HW166256   7.405   2.242   0.236 -0.1794  0.6017 -0.0887
21605SOL    HW266257   7.306   2.353   0.212  0.0411  0.5747 -1.1563
21606SOL     OW66258   6.437   7.273   1.382 -0.1028  0.6455 -0.1610
21606SOL    HW166259   6.390   7.214   1.324  0.3299  0.3283 -0.1919
21606SOL    HW266260   6.416   7.361   1.348 -1.2034  0.5510  0.2342
21607SOL     OW66261   5.818   1.531   2.182  0.7362 -0.0845 -0.3628
21607SOL    HW166262   5.868   1.450   2.173  3.3353  1.4695 -0.9196
21607SOL    HW266263   5.823   1.552   2.275 -0.3767 -0.7579 -0.1256
21608SOL     OW66264   4.294   6.075   0.860  0.4360  0.5425 -0.3526
21608SOL    HW166265   4.216   6.111   0.903  1.1291  2.6771 -0.7680
21608SOL    HW266266   4.358   6.066   0.930  0.1828 -0.1691 -0.2039
21609SOL     OW66267   5.706   6.014   7.952  0.4395 -0.3959  0.3306
21609SOL    HW166268   5.660   6.096   7.965 -0.7014 -1.2132  1.7053
21609SOL    HW266269   5.708   6.002   7.857 -1.4799  0.0871  0.1873
21610SOL     OW66270   4.106   7.361   6.118  0.3986 -0.5281 -0.0901
21610SOL    HW166271   4.109   7.395   6.207  1.8524 -0.0269 -0.3077
21610SOL    HW266272   4.047   7.420   6.072  0.4112 -0.2095  0.3005
21611SOL     OW66273   5.450   5.150   8.818 -0.5140 -0.4657  0.0337
21611SOL    HW166274   5.485   5.230   8.778  1.2645 -1.1450  0.1288
21611SOL    HW266275   5.418   5.179   8.904  1.2003 -0.0190  0.5647
21612SOL     OW66276   7.354   1.080   1.850  0.2304  0.2699 -0.1951
21612SOL    HW166277   7.355   1.110   1.760  0.9287  0.9514  0.0309
21612SOL    HW266278   7.442   1.099   1.883  0.5369 -1.5141  0.1264
21613SOL     OW66279   6.636   2.894   1.782 -0.5919  0.3070  0.3123
21613SOL    HW166280   6.647   2.985   1.755 -0.4805  0.5601  1.1803
21613SOL    HW266281   6.710   2.848   1.742 -1.2500  0.3778 -1.0331
21614SOL     OW66282   3.574   6.354   0.924 -0.3936 -0.4264  0.1545
21614SOL    HW166283   3.526   6.431   0.955 -0.4032  0.3430 -1.6200
21614SOL    HW266284   3.635   6.333   0.995 -2.0361 -0.2857  1.6705
21615SOL     OW66285   5.984   1.538   5.978 -0.3173 -0.6600  0.1527
21615SOL    HW166286   5.957   1.588   5.901  0.2351 -0.9920 -0.2601
21615SOL    HW266287   6.069   1.502   5.955 -0.9311 -2.2313  0.2324
21616SOL     OW66288   7.073   1.595   0.109 -0.1687 -0.4910  0.1220
21616SOL    HW166289   6.994   1.628   0.068  1.1664  0.3763 -1.9023
21616SOL    HW266290   7.051   1.587   0.202 -2.1284  1.2112 -0.1423
21617SOL     OW66291   4.862   3.036   9.386 -0.2094  0.1638 -0.1776
21617SOL    HW166292   4.876   3.046   9.480  2.3370  1.9236 -0.6512
21617SOL    HW266293   4.768   3.020   9.377 -0.3517 -1.1641  2.7044
21618SOL     OW66294   1.780   3.991   5.834  0.6621 -0.1830 -0.4168
21618SOL    HW166295   1.801   3.969   5.925 -0.0819 -2.4237 -0.7311
21618SOL    HW266296   1.817   4.079   5.822 -1.4239  1.3429  2.7815
21619SOL     OW66297   3.587   3.129  10.107  0.7225  0.3836  0.3359
21619SOL    HW166298   3.514   3.159  10.054 -0.9654 -3.4588  0.1130
21619SOL    HW266299   3.572   3.164  10.194 -1.1084  0.1469  0.1406
21620SOL     OW66300   5.128   0.930   4.856 -0.1002 -0.0009 -0.1632
21620SOL    HW166301   5.178   1.011   4.843 -0.4737  0.2231 -0.2097
21620SOL    HW266302   5.193   0.867   4.886  0.1504  0.3931  0.1471
21621SOL     OW66303   5.005   4.043  11.340  0.2899 -0.1926 -0.0109
21621SOL    HW166304   5.092   4.064  11.374  0.4474  0.1404 -0.6024
21621SOL    HW266305   5.020   3.977  11.272  0.2245  0.7417 -0.9619
21622SOL     OW66306   0.513   5.206   0.610  0.2116 -0.1381  0.4880
21622SOL    HW166307   0.603   5.174   0.603 -0.0452 -0.9610  0.9051
21622SOL    HW266308   0.511   5.251   0.694  0.7366  1.5660 -0.3575
21623SOL     OW66309   3.310   7.655   0.259 -0.3248 -0.2529  0.2233
21623SOL    HW166310   3.369   7.706   0.315 -1.4936  2.0359 -0.5039
21623SOL    HW266311   3.317   7.696   0.173 -1.7695 -0.9594 -0.2612
21624SOL     OW66312   4.559   1.453   2.013  0.7717 -0.8311  0.4625
21624SOL    HW166313   4.651   1.430   2.026  1.2454  0.8559  0.3195
21624SOL    HW266314   4.540   1.425   1.924  1.7215  0.4688 -0.1872
21625SOL     OW66315   1.356   2.437   9.939 -0.3369  0.5946 -0.8688
21625SOL    HW166316   1.302   2.397  10.007  2.2761 -1.0702  0.4177
21625SOL    HW266317   1.387   2.363   9.887 -0.2007  1.6069 -2.2841
21626SOL     OW66318   5.993   4.628   9.614 -0.1569 -0.1205  0.7769
21626SOL    HW166319   5.917   4.664   9.661 -0.2202 -0.2851  0.8011
21626SOL    HW266320   6.054   4.701   9.608 -0.4507  0.1020  0.4756
21627SOL     OW66321   7.739   0.223   9.705  0.0461  0.1003  0.2299
21627SOL    HW166322   7.712   0.241   9.616  0.4406  0.8154  0.2491
21627SOL    HW266323   7.674   0.268   9.760  1.5348  2.3532  0.2771
21628SOL     OW66324   1.781   3.780   2.073  0.2677  0.1466 -0.3354
21628SOL    HW166325   1.850   3.811   2.131  0.8860 -1.2631 -0.2605
21628SOL    HW266326   1.828   3.742   1.998 -0.2932 -2.1839  0.3911
21629SOL     OW66327   3.148   4.953  11.753 -0.6141 -0.0820 -0.7579
21629SOL    HW166328   3.136   5.042  11.722 -0.0689  0.8366  1.4381
21629SOL    HW266329   3.069   4.906  11.726 -2.6903  2.0561  1.1313
21630SOL     OW66330   5.226   2.120   0.157  0.0389  0.4524 -0.2084
21630SOL    HW166331   5.174   2.117   0.237  0.2266 -0.7458 -0.1119
21630SOL    HW266332   5.214   2.209   0.123  0.1339  1.0521  1.2629
21631SOL     OW66333   6.483   4.432   5.986  0.1055  0.1368  0.2673
21631SOL    HW166334   6.490   4.446   6.081  0.9208 -0.8478  0.3669
21631SOL    HW266335   6.390   4.412   5.973  0.1916 -0.8685  1.0440
21632SOL     OW66336   3.691   5.316   5.852  0.3073  0.2320  0.1088
21632SOL    HW166337   3.685   5.382   5.921 -0.8938 -0.4255  0.6619
21632SOL    HW266338   3.626   5.250   5.875  0.6757 -0.5857 -1.0482
21633SOL     OW66339   1.908   3.192   3.073  0.1076 -0.3525  0.4451
21633SOL    HW166340   1.984   3.176   3.129 -0.0098  0.4267  0.8301
21633SOL    HW266341   1.908   3.286   3.058  0.5251 -0.6206 -1.4391
21634SOL     OW66342   1.850   1.384   9.352 -0.5322  0.2847 -0.8137
21634SOL    HW166343   1.763   1.421   9.339  0.6214  3.8625  0.5126
21634SOL    HW266344   1.855   1.366   9.446 -0.4633 -1.8907 -1.1837
21635SOL     OW66345   4.159   3.568   2.681 -0.0658  0.9833 -0.3714
21635SOL    HW166346   4.202   3.493   2.640  1.4322  0.8757  1.2618
21635SOL    HW266347   4.230   3.629   2.700 -0.7481  1.2707  1.4688
21636SOL     OW66348   7.549   6.382  10.631 -0.5610  0.1043 -0.9078
21636SOL    HW166349   7.624   6.437  10.608  0.7577 -1.7923 -1.3671
21636SOL    HW266350   7.580   6.329  10.705 -0.3057 -2.8486 -2.9759
21637SOL     OW66351   7.686   4.730   5.862  0.0484  0.7418  0.1534
21637SOL    HW166352   7.712   4.650   5.815 -0.8325  1.5200 -1.7610
21637SOL    HW266353   7.762   4.788   5.853  0.7112  0.1461  1.5952
21638SOL     OW66354   5.100   0.909   0.553 -0.0662  0.3362 -0.0754
21638SOL    HW166355   5.043   0.834   0.569  2.9759 -2.1944 -0.1316
21638SOL    HW266356   5.136   0.930   0.639  0.0064  0.9873 -0.2591
21639SOL     OW66357   7.179   4.269   7.253  0.1063 -0.2697  0.1130
21639SOL    HW166358   7.186   4.352   7.301  1.4780 -0.5018  0.3387
21639SOL    HW266359   7.223   4.286   7.169  0.4139 -0.7789  0.1702
21640SOL     OW66360   3.866   2.546   4.021 -0.0203 -0.3474  0.5429
21640SOL    HW166361   3.774   2.569   4.013 -0.0376  1.0508  3.4905
21640SOL    HW266362   3.913   2.618   3.979 -0.2428  0.1437  1.1307
21641SOL     OW66363   0.850   5.821   4.813 -0.1157  0.6774 -0.0281
21641SOL    HW166364   0.779   5.850   4.756 -0.8067 -1.4366 -0.3497
21641SOL    HW266365   0.806   5.777   4.886  0.8295  0.7144  0.5836
21642SOL     OW66366   3.187   3.716   0.561  0.3259  0.4391  0.1070
21642SOL    HW166367   3.251   3.737   0.628  0.7907  1.1655 -0.5444
21642SOL    HW266368   3.136   3.644   0.598  3.0010 -1.8150 -0.2899
21643SOL     OW66369   4.935   3.563  10.295 -0.0103  0.6621  0.9195
21643SOL    HW166370   4.891   3.543  10.378  0.9931  1.6240  1.7245
21643SOL    HW266371   4.939   3.480  10.248  3.3167 -1.0201  3.7436
21644SOL     OW66372   4.937   6.236   7.476 -0.5796  0.3552 -0.2586
21644SOL    HW166373   4.920   6.142   7.480 -1.3791  0.4956 -0.1514
21644SOL    HW266374   4.903   6.263   7.391 -0.6936  0.6067 -0.1361
21645SOL     OW66375   6.534   4.232   7.910  0.0465  0.6992 -0.1308
21645SOL    HW166376   6.494   4.151   7.944  0.2704  0.6947  0.1228
21645SOL    HW266377   6.616   4.203   7.871 -1.2010  0.3514 -2.7293
21646SOL     OW66378   0.730   3.333   6.922  0.3017 -0.2295 -0.0064
21646SOL    HW166379   0.639   3.344   6.949  0.7833  0.9107  1.3129
21646SOL    HW266380   0.753   3.244   6.949 -0.1899 -0.2407  0.3906
21647SOL     OW66381   7.009   6.405   0.833  0.1824  0.0321 -0.5288
21647SOL    HW166382   6.988   6.461   0.907 -0.4628 -0.4712 -0.3227
21647SOL    HW266383   6.933   6.413   0.775  0.0725 -0.6563 -0.4801
21648SOL     OW66384   6.047   4.131  10.998  0.4945  0.0566  0.2350
21648SOL    HW166385   6.040   4.137  11.093 -0.2578  1.4108  0.1216
21648SOL    HW266386   6.033   4.221  10.967  2.1263 -0.0954 -1.0847
21649SOL     OW66387   3.052   2.115  11.740  0.1988 -0.8686  0.1301
21649SOL    HW166388   3.005   2.161  11.809 -1.3215 -1.1290 -0.6986
21649SOL    HW266389   3.097   2.043  11.785  1.6643  0.6881  1.2621
21650SOL     OW66390   4.248   6.081  11.126  0.1103 -0.2128 -0.8248
21650SOL    HW166391   4.281   5.998  11.160 -3.1707 -0.5791  2.0680
21650SOL    HW266392   4.235   6.066  11.033  1.1589 -2.3209 -0.6814
21651SOL     OW66393   7.187   6.297   3.532 -0.2142  0.3134  0.5447
21651SOL    HW166394   7.157   6.209   3.507 -1.1574  0.8427 -0.2463
21651SOL    HW266395   7.165   6.304   3.625 -0.7861 -0.0355  0.4425
21652SOL     OW66396   2.716   4.752   8.026  0.1836  0.2796 -0.2032
21652SOL    HW166397   2.798   4.800   8.034 -0.0163  0.6795 -0.5140
21652SOL    HW266398   2.739   4.661   8.047  0.8643  0.2472 -1.0194
21653SOL     OW66399   7.560   7.743   0.304 -0.0224  0.0759 -0.8700
21653SOL    HW166400   7.641   7.779   0.268 -1.0472  1.3527 -2.0191
21653SOL    HW266401   7.535   7.805   0.372 -1.8388  1.7642 -2.9103
21654SOL     OW66402   2.938   2.802   6.593  0.5849 -0.3150 -0.3502
21654SOL    HW166403   2.989   2.808   6.674  0.6787  0.6620 -0.4720
21654SOL    HW266404   2.899   2.889   6.583 -1.5839 -1.1965  0.0340
21655SOL     OW66405   3.057   6.119   7.389  0.1024  0.7660 -0.0994
21655SOL    HW166406   3.110   6.055   7.436  0.0296  0.6532 -0.1705
21655SOL    HW266407   3.001   6.157   7.456 -0.2510  0.3510 -0.1563
21656SOL     OW66408   5.365   5.234  11.109 -0.5335 -0.3104  0.1038
21656SOL    HW166409   5.380   5.328  11.111 -0.7607 -0.2869  1.4336
21656SOL    HW266410   5.363   5.212  11.016  0.0810  0.9008 -0.2149
21657SOL     OW66411   7.018   6.847   6.876 -0.1782 -0.2407  0.3554
21657SOL    HW166412   7.027   6.850   6.780 -1.5969 -0.0319  0.2112
21657SOL    HW266413   6.997   6.937   6.901  0.5176 -0.2281  0.9118
21658SOL     OW66414   3.373   4.141  10.186 -0.7275  0.5882 -0.1294
21658SOL    HW166415   3.394   4.104  10.100  1.0288  1.2555 -0.0269
21658SOL    HW266416   3.457   4.158  10.226 -1.3732 -2.8933  3.2525
21659SOL     OW66417   2.000   1.482   3.658 -0.4861  0.3002  0.0832
21659SOL    HW166418   1.978   1.500   3.749  2.2151  0.1815  0.8584
21659SOL    HW266419   2.050   1.400   3.661 -0.2617  0.3420 -1.5031
21660SOL     OW66420   3.555   7.552   7.139  0.3640 -0.4098  0.6842
21660SOL    HW166421   3.630   7.584   7.189 -1.5295  0.6982  3.0579
21660SOL    HW266422   3.490   7.622   7.146 -0.4434 -0.6748 -2.5556
21661SOL     OW66423   7.485   0.255   7.670  0.1506  0.4000 -0.2870
21661SOL    HW166424   7.456   0.250   7.761 -1.6216  1.8469 -0.7217
21661SOL    HW266425   7.418   0.307   7.626  0.9095 -0.3536 -2.4661
21662SOL     OW66426   4.611   7.106   4.506  0.3530 -0.5153 -0.0906
21662SOL    HW166427   4.682   7.166   4.481  0.2211 -0.7670 -1.1336
21662SOL    HW266428   4.531   7.158   4.498  0.2088 -0.8963 -1.3041
21663SOL     OW66429   0.511   7.389   4.407 -0.7163  0.3369  1.2742
21663SOL    HW166430   0.589   7.334   4.422 -1.3500 -0.5587  1.3709
21663SOL    HW266431   0.471   7.352   4.329 -1.6470  0.0793  1.8588
21664SOL     OW66432   3.292   6.805   2.379  0.4229  0.1173  0.0791
21664SOL    HW166433   3.327   6.785   2.466  0.1624 -0.3314  0.0810
21664SOL    HW266434   3.264   6.896   2.385  0.0056 -0.0408  0.5999
21665SOL     OW66435   0.143   7.412   2.773  0.3618 -0.0729  0.1405
21665SOL    HW166436   0.077   7.371   2.716  1.1110  0.6055 -1.2765
21665SOL    HW266437   0.138   7.505   2.751  1.2317  0.0899  0.6011
21666SOL     OW66438   1.763   2.043   2.615 -0.1641  0.4980  0.3817
21666SOL    HW166439   1.732   1.957   2.587  0.3607  0.4969 -0.2295
21666SOL    HW266440   1.823   2.025   2.687  2.1637  0.0702 -1.5301
21667SOL     OW66441   4.653   4.023   1.331  0.1716 -0.2649 -0.7978
21667SOL    HW166442   4.602   4.017   1.412  2.9077  0.2930  1.1021
21667SOL    HW266443   4.692   3.936   1.321  2.8771  0.6344  0.7680
21668SOL     OW66444   7.167   2.957   7.216  0.1404  0.1406  0.7172
21668SOL    HW166445   7.200   2.867   7.219  0.8079  0.3403 -0.2164
21668SOL    HW266446   7.226   3.002   7.155 -2.1728  0.3795 -1.5135
21669SOL     OW66447   3.167   7.556   3.222  0.3293  0.6747  0.3372
21669SOL    HW166448   3.223   7.497   3.171 -0.9911 -0.2274 -0.1356
21669SOL    HW266449   3.101   7.498   3.261 -0.4786  1.7318  0.5844
21670SOL     OW66450   3.916   0.899  10.872 -0.1101 -0.1920  0.4620
21670SOL    HW166451   3.926   0.992  10.895 -1.1148  0.6906 -2.2076
21670SOL    HW266452   4.006   0.867  10.865  0.2606  0.5657  1.3639
21671SOL     OW66453   6.555   0.753   3.853 -0.5897  0.5103  0.2776
21671SOL    HW166454   6.594   0.687   3.910 -0.4374  0.0765 -0.3186
21671SOL    HW266455   6.463   0.756   3.879 -0.6159  0.0021  0.2523
21672SOL     OW66456   5.054   7.770   3.254 -0.5309 -0.0396 -0.8367
21672SOL    HW166457   5.150   7.761   3.255 -0.7276 -2.9843  1.2242
21672SOL    HW266458   5.029   7.776   3.346 -2.5428 -3.0670 -1.0699
21673SOL     OW66459   5.004   1.975   0.683  0.2945  0.0799  0.5099
21673SOL    HW166460   5.077   1.930   0.639 -0.1295  1.2127 -1.4853
21673SOL    HW266461   4.954   1.904   0.724  1.2147 -0.9711 -0.0947
21674SOL     OW66462   1.153   7.087  11.240 -0.3280 -0.5629 -0.1251
21674SOL    HW166463   1.146   6.992  11.230  0.3157 -0.4652 -1.8206
21674SOL    HW266464   1.243   7.107  11.215 -0.1675  0.4175  1.1246
21675SOL     OW66465   6.450   2.587  11.947 -1.2224 -0.2804  0.2899
21675SOL    HW166466   6.514   2.594  11.877  0.8095 -1.5100  1.9079
21675SOL    HW266467   6.395   2.665  11.937  1.7663  1.9938 -0.0271
21676SOL     OW66468   6.061   6.333   4.913  0.2300  0.3004  0.1621
21676SOL    HW166469   5.998   6.287   4.969  0.1065 -0.0954 -0.2907
21676SOL    HW266470   6.018   6.337   4.827  0.7081  0.2772 -0.0822
21677SOL     OW66471   4.802   0.400   4.236 -0.5922 -1.2025 -0.4479
21677SOL    HW166472   4.797   0.372   4.327  2.2422 -1.3184 -0.2524
21677SOL    HW266473   4.893   0.425   4.223 -1.4351  1.2106 -2.5975
21678SOL     OW66474   1.934   4.849   3.379 -0.6393 -0.1905 -0.0936
21678SOL    HW166475   1.845   4.814   3.388 -0.3198 -0.6440  1.6613
21678SOL    HW266476   1.944   4.907   3.454  0.5984 -0.2400 -0.2047
21679SOL     OW66477   0.088   4.543   5.577  0.1984  0.5324 -0.4126
21679SOL    HW166478   0.088   4.584   5.490 -1.5192 -0.0270 -0.7098
21679SOL    HW266479   0.144   4.600   5.630  0.9864  1.0819 -1.7876
21680SOL     OW66480   0.291   7.280   8.133  0.0055  0.4861 -0.8366
21680SOL    HW166481   0.239   7.260   8.211  0.1862  0.0822 -0.8183
21680SOL    HW266482   0.270   7.372   8.114  0.3811  0.7662  0.0144
21681SOL     OW66483   4.085   6.861   5.429 -0.1908 -0.2889 -0.0237
21681SOL    HW166484   4.116   6.892   5.345 -0.8252  0.8750  0.1540
21681SOL    HW266485   4.145   6.790   5.453 -0.7112 -1.4581 -2.0003
21682SOL     OW66486   1.393   0.777   3.847  0.3338 -0.0604  0.6308
21682SOL    HW166487   1.456   0.706   3.858 -0.0864 -1.2827 -3.2088
21682SOL    HW266488   1.441   0.843   3.796 -0.5546  0.4367  0.4290
21683SOL     OW66489   6.626   1.195   6.286 -0.2571  0.2031  0.3651
21683SOL    HW166490   6.608   1.232   6.372  0.4620  0.5538  0.3697
21683SOL    HW266491   6.689   1.255   6.246  0.4338 -0.6573  0.1124
21684SOL     OW66492   6.977   1.377   9.249  0.4241  0.8676 -0.4144
21684SOL    HW166493   7.017   1.291   9.234  0.7206  1.0686 -0.7807
21684SOL    HW266494   7.047   1.428   9.290  0.7626  1.4291 -1.6680
21685SOL     OW66495   2.192   0.499   3.132 -0.3284 -0.1000  0.1131
21685SOL    HW166496   2.139   0.576   3.111 -0.2707 -0.3151 -0.8586
21685SOL    HW266497   2.157   0.469   3.217 -1.9154 -0.3492 -0.5901
21686SOL     OW66498   3.248   1.972   5.129  0.1795  0.0013  0.0399
21686SOL    HW166499   3.298   1.929   5.060  1.6246  1.5941  0.0309
21686SOL    HW266500   3.258   2.065   5.112  0.7252  0.4710  2.4562
21687SOL     OW66501   4.973   7.414   9.604 -0.6209 -0.4578 -0.1920
21687SOL    HW166502   4.993   7.320   9.607  0.7359 -0.2077 -0.7583
21687SOL    HW266503   5.008   7.443   9.520 -0.5800  0.6540  0.2007
21688SOL     OW66504   7.234   1.600   2.822 -0.0772  0.4331  0.5762
21688SOL    HW166505   7.243   1.580   2.915  1.0764 -0.7006  0.2466
21688SOL    HW266506   7.239   1.515   2.778 -0.7898  0.9315 -0.5185
21689SOL     OW66507   6.767   2.620  11.196  0.5611  0.3293  0.0568
21689SOL    HW166508   6.710   2.627  11.273 -0.8062 -1.7638 -0.6726
21689SOL    HW266509   6.707   2.627  11.122  1.6406  0.6831 -0.7961
21690SOL     OW66510   2.708   2.575   8.643 -0.2321 -0.1010 -0.5677
21690SOL    HW166511   2.644   2.565   8.573 -0.4064 -0.0072 -0.4231
21690SOL    HW266512   2.791   2.549   8.603 -0.6462 -2.1940 -0.2208
21691SOL     OW66513   0.793   2.795  11.065 -0.6193  0.0103  0.2329
21691SOL    HW166514   0.809   2.750  11.147 -1.9307 -0.6026  0.1788
21691SOL    HW266515   0.782   2.887  11.089 -0.5035 -0.0918  0.6763
21692SOL     OW66516   6.000   3.568   2.496 -0.8256 -0.1662  0.3809
21692SOL    HW166517   5.945   3.509   2.445 -0.2534  0.1533 -0.6237
21692SOL    HW266518   6.082   3.573   2.448 -0.3880  0.4127  1.1589
21693SOL     OW66519   0.438   5.936   9.240  0.6347  0.4403  0.2738
21693SOL    HW166520   0.521   5.901   9.208  0.8438  1.3763 -0.2423
21693SOL    HW266521   0.450   5.941   9.335  1.1260  0.4398  0.2168
21694SOL     OW66522   6.266   5.217  11.497 -0.0713 -0.0996  0.0332
21694SOL    HW166523   6.303   5.170  11.572 -0.1750 -1.3032 -0.6390
21694SOL    HW266524   6.328   5.201  11.426 -0.0338  0.9324 -0.1743
21695SOL     OW66525   2.985   4.787   2.002  0.2994 -0.4336 -0.0994
21695SOL    HW166526   2.959   4.708   2.049  0.9790 -1.1511 -0.8875
21695SOL    HW266527   3.077   4.773   1.980  0.2505  0.2921 -0.8194
21696SOL     OW66528   0.747   1.218   4.441 -0.2136 -0.5967  0.1429
21696SOL    HW166529   0.660   1.218   4.482 -0.7605 -0.8594 -0.9577
21696SOL    HW266530   0.786   1.302   4.465 -1.0964 -0.1388  0.0157
21697SOL     OW66531   0.296   5.650   2.281  0.1579 -0.1516  0.4500
21697SOL    HW166532   0.337   5.565   2.299  0.4965 -0.0047  0.3682
21697SOL    HW266533   0.275   5.647   2.187 -1.6375 -0.9293  0.8292
21698SOL     OW66534   7.856   7.797   1.184 -0.3865  0.0177 -0.0129
21698SOL    HW166535   7.822   7.768   1.100 -0.6950  0.9773 -0.2337
21698SOL    HW266536   7.951   7.799   1.173 -0.4716  1.2725 -0.7456
21699SOL     OW66537   5.903   2.192   8.652  0.3743  0.2241 -0.1782
21699SOL    HW166538   5.897   2.286   8.672  0.6155  0.4576 -1.1601
21699SOL    HW266539   5.905   2.188   8.557 -1.9153 -0.9248 -0.2335
21700SOL     OW66540   4.921   5.788   3.132 -0.0282 -0.1090 -0.8344
21700SOL    HW166541   4.998   5.811   3.079  1.9781 -2.8911  0.6461
21700SOL    HW266542   4.913   5.693   3.122 -1.1476 -0.3641  1.7660
21701SOL     OW66543   2.236   4.014   2.236  0.6686  0.0213  0.1976
21701SOL    HW166544   2.212   4.102   2.264 -0.4203 -0.2993  0.2983
21701SOL    HW266545   2.293   3.982   2.306  0.8894  0.5541  0.2688
21702SOL     OW66546   5.251   4.824   2.149 -0.2745 -0.1026  0.4831
21702SOL    HW166547   5.276   4.909   2.184  0.9544 -0.1652 -0.1737
21702SOL    HW266548   5.255   4.764   2.223 -0.6882  0.3201  0.8490
21703SOL     OW66549   1.299   5.115   1.873 -0.2517 -0.3308  0.1810
21703SOL    HW166550   1.306   5.032   1.920  1.9594 -1.0001 -1.1898
21703SOL    HW266551   1.347   5.101   1.791  1.4339  2.6892  0.4997
21704SOL     OW66552   5.876   7.233   5.427  0.2513 -0.4521 -0.3450
21704SOL    HW166553   5.844   7.154   5.384 -0.4495 -0.1286 -0.4469
21704SOL    HW266554   5.895   7.206   5.516  0.8985 -0.9384 -0.6257
21705SOL     OW66555   5.826   0.382  10.345 -0.8436  0.2341 -0.3515
21705SOL    HW166556   5.762   0.435  10.393 -0.1923  1.8999 -1.2346
21705SOL    HW266557   5.773   0.313  10.304 -1.8750  0.7510  0.0612
21706SOL     OW66558   7.510   6.225   6.244 -0.2667  0.3467  0.0153
21706SOL    HW166559   7.448   6.287   6.204  1.5509  1.2804 -1.5522
21706SOL    HW266560   7.550   6.181   6.169 -2.9106 -4.4528  0.9885
21707SOL     OW66561   6.189   1.456   6.865  0.1234 -0.1346 -0.2542
21707SOL    HW166562   6.126   1.407   6.813 -1.1367  1.6072 -0.4462
21707SOL    HW266563   6.240   1.505   6.801  0.9421 -0.6653 -0.0257
21708SOL     OW66564   4.305   2.893   2.906 -0.0875 -0.4228 -0.8332
21708SOL    HW166565   4.271   2.982   2.902 -1.5366 -0.7872  1.3330
21708SOL    HW266566   4.398   2.901   2.884 -0.3171  1.5237 -1.2383
21709SOL     OW66567   0.390   6.858   5.986  0.0287  0.5057 -0.4955
21709SOL    HW166568   0.456   6.863   5.917  0.4803 -0.3175 -0.1254
21709SOL    HW266569   0.315   6.816   5.944  0.7174 -1.0855 -0.1853
21710SOL     OW66570   2.206   3.155   6.162 -0.4267  0.1076 -0.3679
21710SOL    HW166571   2.185   3.084   6.102 -0.4131  0.2725 -0.5696
21710SOL    HW266572   2.122   3.185   6.196 -0.5392  0.8212 -1.2358
21711SOL     OW66573   4.316   7.251   0.979  0.4438 -0.2295  0.0183
21711SOL    HW166574   4.226   7.238   1.011 -0.3214  1.7035 -1.1399
21711SOL    HW266575   4.306   7.310   0.904  2.6353 -0.5662 -0.6099
21712SOL     OW66576   6.932   1.542  12.219 -0.2682 -0.4036  0.7325
21712SOL    HW166577   6.979   1.459  12.230 -0.9959 -0.6819  1.8143
21712SOL    HW266578   6.888   1.557  12.302 -1.0252  0.5336  0.1898
21713SOL     OW66579   5.658   1.391   6.415 -0.2389  0.5511 -0.6279
21713SOL    HW166580   5.592   1.353   6.473  0.5843 -0.3149 -0.2472
21713SOL    HW266581   5.619   1.385   6.328 -1.0073  0.8245 -0.3121
21714SOL     OW66582   0.137   2.869  11.380 -0.4559  0.4987  0.2794
21714SOL    HW166583   0.138   2.951  11.331  0.2361  0.1176 -0.3600
21714SOL    HW266584   0.087   2.808  11.325  0.3559  0.0592  0.0154
21715SOL     OW66585   5.949   5.106  10.294  0.4182  0.6081  0.1592
21715SOL    HW166586   5.884   5.157  10.246 -1.1859 -2.3875 -1.1287
21715SOL    HW266587   5.979   5.165  10.363 -0.3196  3.6504 -1.9090
21716SOL     OW66588   4.522   0.482   3.768  0.6075 -0.1286  0.1896
21716SOL    HW166589   4.569   0.418   3.714 -0.5448 -2.4032  1.7477
21716SOL    HW266590   4.575   0.491   3.847  1.2037  1.5857 -0.3530
21717SOL     OW66591   4.181   6.082   6.198 -0.3232 -0.0265 -0.4828
21717SOL    HW166592   4.139   6.148   6.254 -0.6991  0.3113 -1.1622
21717SOL    HW266593   4.172   6.116   6.109 -0.8935 -1.1924 -0.8941
21718SOL     OW66594   0.414   5.835  10.338  0.5104  0.3319 -0.2189
21718SOL    HW166595   0.365   5.910  10.304  1.8693  1.1077 -0.5496
21718SOL    HW266596   0.389   5.762  10.281  1.0237  1.1022 -1.4836
21719SOL     OW66597   7.539   6.808   8.846  0.2439  0.6028 -0.4117
21719SOL    HW166598   7.490   6.876   8.800 -0.0129  1.2708  0.8045
21719SOL    HW266599   7.613   6.854   8.885  0.4192  0.0637 -0.0977
21720SOL     OW66600   2.989   7.331  11.920 -0.0988  0.1968  0.0432
21720SOL    HW166601   3.020   7.365  12.004 -0.0261 -0.6840  0.3812
21720SOL    HW266602   2.893   7.336  11.927 -0.0840  0.9858 -0.1926
21721SOL     OW66603   1.766   3.685   0.358 -0.0172  0.0699 -0.9679
21721SOL    HW166604   1.832   3.620   0.336 -0.5117 -0.4608 -0.9003
21721SOL    HW266605   1.730   3.714   0.274 -1.6517 -1.6915 -0.9373
21722SOL     OW66606   5.235   7.783   6.297  0.4135 -0.1652  0.3839
21722SOL    HW166607   5.146   7.758   6.270  0.2154  1.2627 -0.3783
21722SOL    HW266608   5.255   7.723   6.369 -1.7618  0.4288  1.5943
21723SOL     OW66609   3.217   1.118   3.360  0.6424 -0.4007 -0.3000
21723SOL    HW166610   3.285   1.185   3.364 -0.3773  0.6594  0.0272
21723SOL    HW266611   3.178   1.128   3.273  0.7575 -0.8680 -0.4114
21724SOL     OW66612   5.942   1.967  10.401  0.2432  0.0660 -0.1979
21724SOL    HW166613   6.023   1.967  10.350 -0.6081  1.5459 -1.6727
21724SOL    HW266614   5.883   2.024  10.352 -2.2054 -2.0524  0.0328
21725SOL     OW66615   5.547   5.760   3.998 -0.2162 -0.1529 -0.0530
21725SOL    HW166616   5.498   5.796   4.072  1.3669  0.2423  0.8482
21725SOL    HW266617   5.482   5.710   3.948 -2.1208  2.4833 -0.4047
21726SOL     OW66618   4.285   5.317   1.575  0.1237 -0.4882 -0.1965
21726SOL    HW166619   4.379   5.314   1.561  0.6486  1.5068  2.1556
21726SOL    HW266620   4.252   5.375   1.506  0.6939 -0.6069 -0.5755
21727SOL     OW66621   5.148   4.429   3.493 -0.6474  0.0064 -0.0435
21727SOL    HW166622   5.243   4.439   3.495 -0.4472 -1.3972 -1.0792
21727SOL    HW266623   5.133   4.335   3.495 -2.0240  0.2027  0.0392
21728SOL     OW66624   0.548   7.077   7.976 -0.2851  0.1593  0.2563
21728SOL    HW166625   0.500   6.995   7.989 -0.3997  0.2292  0.2671
21728SOL    HW266626   0.565   7.109   8.065 -0.0897  0.0603  0.2566
21729SOL     OW66627   1.550   0.190   0.732 -0.6043 -0.5232 -0.2529
21729SOL    HW166628   1.629   0.243   0.721 -0.3346 -0.7413  0.5666
21729SOL    HW266629   1.574   0.104   0.699 -0.4637 -0.6181  0.0947
21730SOL     OW66630   1.106   1.870  10.079 -0.2756 -0.1058  0.3837
21730SOL    HW166631   1.094   1.792  10.024 -0.7822 -0.6727  1.2747
21730SOL    HW266632   1.036   1.930  10.051 -0.2340 -0.1928  0.0836
21731SOL     OW66633   0.941   7.708   8.105 -0.4729  0.0494 -0.3471
21731SOL    HW166634   0.908   7.797   8.117  1.0851  0.5658  0.3126
21731SOL    HW266635   0.907   7.659   8.180 -0.4521  0.3659 -0.1292
21732SOL     OW66636   6.371   2.023   0.279 -0.3386 -0.1590 -0.1734
21732SOL    HW166637   6.420   2.090   0.327  0.9587 -0.9223 -0.3903
21732SOL    HW266638   6.344   2.067   0.198 -0.8231  0.5415  0.3596
21733SOL     OW66639   0.123   1.521   1.852 -0.1851 -0.3365 -0.2935
21733SOL    HW166640   0.056   1.566   1.903  0.8312 -0.5103  1.2831
21733SOL    HW266641   0.076   1.456   1.801 -1.4889  1.2880 -1.2599
21734SOL     OW66642   1.826   6.793   1.309 -0.3232 -0.3177  0.5492
21734SOL    HW166643   1.854   6.724   1.250  1.1280 -0.2490  1.1341
21734SOL    HW266644   1.746   6.759   1.350  0.4208 -1.6819  0.9046
21735SOL     OW66645   5.875   0.368  11.783  0.1370  0.3342  0.2236
21735SOL    HW166646   5.809   0.435  11.764 -0.7783  0.3348  2.9856
21735SOL    HW266647   5.834   0.313  11.850  1.0514 -2.7518 -1.5507
21736SOL     OW66648   6.762   4.245  11.185 -0.0071 -0.3057 -0.5851
21736SOL    HW166649   6.786   4.335  11.161  1.7807  0.1743  2.5463
21736SOL    HW266650   6.820   4.190  11.132 -0.3035  0.3868 -1.6668
21737SOL     OW66651   2.259   4.032   4.123 -0.2782 -0.0651 -0.0673
21737SOL    HW166652   2.259   4.113   4.073 -1.5438 -0.7247 -1.2142
21737SOL    HW266653   2.328   3.979   4.082  0.9285  0.6014  1.0368
21738SOL     OW66654   3.966   4.362   0.077  0.0376  0.2633 -0.2904
21738SOL    HW166655   3.954   4.275   0.115 -1.6120  0.4643 -0.2882
21738SOL    HW266656   3.887   4.376   0.024  0.4617  1.6056 -0.6031
21739SOL     OW66657   6.598   6.010   4.692  0.3862 -0.2310  0.3797
21739SOL    HW166658   6.504   6.022   4.677  0.2273 -2.7791 -1.4245
21739SOL    HW266659   6.625   5.950   4.623  3.8946  2.1887 -0.6265
21740SOL     OW66660   7.712   4.671   2.673 -0.4879  0.3894  0.9156
21740SOL    HW166661   7.717   4.766   2.666 -2.2286  0.4083 -1.4465
21740SOL    HW266662   7.623   4.654   2.705 -0.6091 -0.4201  0.2127
21741SOL     OW66663   2.027   4.303   5.634 -0.7651  0.2578  0.0755
21741SOL    HW166664   2.101   4.363   5.631  0.0299 -0.7173 -1.9774
21741SOL    HW266665   1.962   4.340   5.574 -1.4524  0.4762  0.9305
21742SOL     OW66666   3.950   0.198   7.541 -0.8598 -0.0884  0.2061
21742SOL    HW166667   3.980   0.177   7.629 -0.0002  2.5496  0.6559
21742SOL    HW266668   4.010   0.267   7.512 -1.2380 -0.7462 -2.3958
21743SOL     OW66669   2.067   4.481   2.201  0.1786  0.0814 -0.6589
21743SOL    HW166670   2.134   4.474   2.133  0.5115  0.4713 -0.3731
21743SOL    HW266671   2.108   4.442   2.279 -0.2168 -0.4081 -0.6909
21744SOL     OW66672   7.151   3.826   4.636  0.1300 -0.6765 -0.1430
21744SOL    HW166673   7.094   3.899   4.660  2.3907  0.8625  0.8191
21744SOL    HW266674   7.159   3.774   4.716  2.5987  0.9631  0.8063
21745SOL     OW66675   1.454   2.379   7.639 -0.2074  0.1814  0.3090
21745SOL    HW166676   1.475   2.435   7.565  0.3861 -0.3736  0.0418
21745SOL    HW266677   1.371   2.338   7.616  1.6017 -2.7236 -1.7556
21746SOL     OW66678   1.700   7.406   8.853 -0.2958 -0.0395 -0.4212
21746SOL    HW166679   1.717   7.497   8.825  0.7283 -0.0948 -0.0049
21746SOL    HW266680   1.690   7.412   8.948 -0.9734 -0.2708 -0.4688
21747SOL     OW66681   5.344   3.790   2.303  0.2092 -0.1756 -0.3544
21747SOL    HW166682   5.317   3.836   2.384  1.3453 -1.3876  0.7539
21747SOL    HW266683   5.421   3.838   2.273  0.8674 -0.7937  0.3109
21748SOL     OW66684   2.276   1.660   4.473 -0.1181  0.1612 -0.3799
21748SOL    HW166685   2.339   1.593   4.498  0.3923  1.3684  1.8067
21748SOL    HW266686   2.231   1.682   4.554  0.7715  3.4845 -0.6493
21749SOL     OW66687   2.681   4.634   5.347 -0.0553  0.3966 -0.1854
21749SOL    HW166688   2.726   4.718   5.331  2.1503 -0.2823  1.8643
21749SOL    HW266689   2.752   4.571   5.360 -1.6351 -2.0133 -2.3127
21750SOL     OW66690   3.908   5.747   6.324 -0.1775  0.2535 -0.1225
21750SOL    HW166691   3.935   5.721   6.412 -1.0366  2.5711  0.9043
21750SOL    HW266692   3.989   5.746   6.273  0.7862  1.0545  1.3007
21751SOL     OW66693   3.126   5.287   2.667 -0.1281 -0.0844  0.1278
21751SOL    HW166694   3.200   5.292   2.727 -0.1443 -1.1627  0.2734
21751SOL    HW266695   3.061   5.349   2.702 -0.4889 -1.2927  1.7496
21752SOL     OW66696   7.057   1.153   6.480 -0.5641 -0.2697  0.3916
21752SOL    HW166697   7.120   1.212   6.520 -0.1575  0.3411 -1.0771
21752SOL    HW266698   7.020   1.103   6.553 -0.4797  1.3708  1.5970
21753SOL     OW66699   7.160   0.662   1.724 -0.7751  0.0706 -0.0136
21753SOL    HW166700   7.144   0.596   1.657 -1.5170  1.5965 -1.4037
21753SOL    HW266701   7.255   0.675   1.724 -0.7856  0.1706 -0.8850
21754SOL     OW66702   2.276   7.049   8.934  0.2572 -0.5647  0.4927
21754SOL    HW166703   2.287   7.068   8.841  0.0936 -0.7161  0.4414
21754SOL    HW266704   2.297   7.132   8.978  1.3969 -0.7941  0.3994
21755SOL     OW66705   6.937   7.385   5.714 -0.5700 -0.3287 -0.0189
21755SOL    HW166706   6.878   7.422   5.779 -1.5112 -0.6751 -0.6562
21755SOL    HW266707   7.024   7.392   5.753 -1.1654 -0.9411  1.4441
21756SOL     OW66708   5.547   1.423   2.723 -0.1638 -0.2119  0.2570
21756SOL    HW166709   5.453   1.437   2.713  0.1057  1.6102 -0.2497
21756SOL    HW266710   5.578   1.503   2.767  0.9432 -1.4251  1.7722
21757SOL     OW66711   4.517   5.293  10.827  0.0846 -0.6612  0.5730
21757SOL    HW166712   4.500   5.298  10.921  0.0412  1.2268  0.5101
21757SOL    HW266713   4.609   5.317  10.819 -0.4084  1.1741  0.0145
21758SOL     OW66714   1.819   3.644   4.714 -0.4627 -0.2463 -0.4106
21758SOL    HW166715   1.755   3.708   4.681  0.8148  0.4153 -1.7361
21758SOL    HW266716   1.901   3.694   4.721  0.4604 -1.6241 -1.0141
21759SOL     OW66717   3.475   6.415  11.110  0.2320  0.6874  0.1757
21759SOL    HW166718   3.416   6.409  11.185 -1.2449  0.2941 -0.9575
21759SOL    HW266719   3.538   6.344  11.122 -0.3451  0.2661  0.7447
21760SOL     OW66720   1.567   4.469  10.712 -0.4522  0.5672  0.5811
21760SOL    HW166721   1.619   4.536  10.756  0.8480 -0.4142  0.6209
21760SOL    HW266722   1.535   4.413  10.782  3.0836 -2.0425  0.4059
21761SOL     OW66723   4.411   5.611  10.610  0.0549 -0.2463  0.0335
21761SOL    HW166724   4.499   5.576  10.624 -1.0414 -2.4043  2.3808
21761SOL    HW266725   4.405   5.687  10.668 -0.4966 -1.9335  2.3607
21762SOL     OW66726   6.172   7.658  11.176 -0.1056  0.5772 -0.0341
21762SOL    HW166727   6.219   7.740  11.165  4.2587 -1.5498  0.3967
21762SOL    HW266728   6.143   7.634  11.088  2.8330  0.4647 -1.0886
21763SOL     OW66729   5.753   4.567   5.165 -0.4647 -0.0528  0.0494
21763SOL    HW166730   5.677   4.526   5.205  0.6854 -1.6438  0.6988
21763SOL    HW266731   5.777   4.638   5.224 -1.0121  0.0081  0.2010
21764SOL     OW66732   4.967   0.656   9.074 -0.3975 -0.1586  0.3549
21764SOL    HW166733   4.977   0.563   9.097 -0.5481  0.0536  1.3299
21764SOL    HW266734   4.889   0.684   9.121  0.3962  0.7902  1.1693
21765SOL     OW66735   5.110   1.969   8.428 -0.2808 -0.1650 -0.2269
21765SOL    HW166736   5.041   2.033   8.418  0.0611  0.1824 -0.3735
21765SOL    HW266737   5.074   1.888   8.392 -1.3485 -0.5025  1.5144
21766SOL     OW66738   4.581   5.460   4.993  0.4852  0.2894  0.3538
21766SOL    HW166739   4.676   5.474   4.982  0.5871  0.4375  1.2903
21766SOL    HW266740   4.575   5.380   5.044  0.1389  0.6444  0.8832
21767SOL     OW66741   2.567   1.992   3.391  0.9064  0.3301  0.3763
21767SOL    HW166742   2.654   2.027   3.409  0.8774  0.1007  0.9719
21767SOL    HW266743   2.569   1.904   3.426  0.6852  0.0397 -0.3181
21768SOL     OW66744   0.722   6.818   6.785  0.3919  0.7129 -0.0427
21768SOL    HW166745   0.729   6.780   6.872 -0.9700 -0.0922 -0.2476
21768SOL    HW266746   0.811   6.821   6.752  0.8102  0.1570  1.0123
21769SOL     OW66747   7.515   0.095   8.438 -0.4895 -0.7633  0.3490
21769SOL    HW166748   7.570   0.167   8.408 -1.4201  0.3029  1.1349
21769SOL    HW266749   7.554   0.068   8.521 -0.1629 -1.1526  0.0726
21770SOL     OW66750   1.406   5.155  10.513 -0.4795 -0.4258  0.3041
21770SOL    HW166751   1.484   5.120  10.472 -0.6863 -0.8395  0.2640
21770SOL    HW266752   1.391   5.098  10.589 -1.8954 -1.6172 -0.8162
21771SOL     OW66753   2.844   1.652  10.703  0.0931 -0.2416 -0.0683
21771SOL    HW166754   2.882   1.697  10.778  0.4746 -1.8593  0.7662
21771SOL    HW266755   2.915   1.597  10.670 -0.9751 -1.9876  0.4191
21772SOL     OW66756   2.362   4.717   6.382 -0.0862 -0.1061  0.0044
21772SOL    HW166757   2.324   4.798   6.417 -2.8833 -0.7987 -1.1084
21772SOL    HW266758   2.390   4.740   6.294  0.3689 -0.0418  0.1645
21773SOL     OW66759   7.054   6.483   6.067 -0.1211 -0.1356  0.3551
21773SOL    HW166760   7.086   6.556   6.121  1.2748 -0.2595 -0.2409
21773SOL    HW266761   6.995   6.435   6.124 -0.8643  1.3107  0.8465
21774SOL     OW66762   5.742   1.166   8.948 -0.3340  0.0632 -0.2506
21774SOL    HW166763   5.713   1.251   8.915 -0.6644  0.7694  1.7459
21774SOL    HW266764   5.809   1.138   8.885  0.4772  2.2400 -0.4438
21775SOL     OW66765   7.891   0.883   6.966 -0.6735  0.1754 -0.3697
21775SOL    HW166766   7.949   0.847   7.034 -1.8190  0.3426  0.7422
21775SOL    HW266767   7.917   0.837   6.886  0.6804 -0.0788  0.1756
21776SOL     OW66768   1.425   5.581  10.779  0.5788 -0.1313  0.7146
21776SOL    HW166769   1.455   5.640  10.847  1.1188  0.7613 -0.2743
21776SOL    HW266770   1.463   5.496  10.801  0.8568  0.1812  1.4339
21777SOL     OW66771   1.397   4.987   3.816  0.2600 -0.2908  0.5509
21777SOL    HW166772   1.437   5.057   3.868  0.4861 -0.4788  0.6302
21777SOL    HW266773   1.310   5.020   3.795  0.6880  0.4140 -0.1885
21778SOL     OW66774   7.923   6.139   9.680  0.0271 -0.5936 -0.0028
21778SOL    HW166775   7.849   6.078   9.677 -0.1767 -0.3879  0.8076
21778SOL    HW266776   7.885   6.224   9.656 -0.3409 -0.1789  1.8683
21779SOL     OW66777   0.339   5.008   3.619 -0.0729 -0.3836 -0.0364
21779SOL    HW166778   0.402   5.063   3.665 -1.4791  0.9149  0.4082
21779SOL    HW266779   0.267   4.997   3.680 -0.0484 -2.3867 -0.2981
21780SOL     OW66780   1.205   5.661  10.249  0.4400  0.3715  0.5321
21780SOL    HW166781   1.301   5.667  10.243  0.4108  0.5249  0.2116
21780SOL    HW266782   1.174   5.741  10.208  0.1403 -0.2517 -0.4699
21781SOL     OW66783   4.556   0.545  11.133  0.2210  0.6342  0.1804
21781SOL    HW166784   4.552   0.463  11.086  1.1636 -0.2105  1.4846
21781SOL    HW266785   4.469   0.584  11.123 -0.1967 -0.4551 -0.5399
21782SOL     OW66786   7.110   7.791  11.075  0.0663  0.6140  0.3131
21782SOL    HW166787   7.188   7.780  11.020 -1.3326 -0.6249 -1.5060
21782SOL    HW266788   7.091   7.884  11.071  1.2379  0.8788  0.4996
21783SOL     OW66789   6.111   4.225   2.313 -0.9701 -0.2753  0.2062
21783SOL    HW166790   6.175   4.192   2.250  0.9720  2.9939  0.2422
21783SOL    HW266791   6.164   4.255   2.387 -2.6124  1.6424  0.6689
21784SOL     OW66792   2.173   6.325   5.702 -0.5264  0.4154  0.3050
21784SOL    HW166793   2.171   6.313   5.607  0.9810 -3.2537  0.5827
21784SOL    HW266794   2.150   6.417   5.714 -0.1768  1.2243 -3.6174
21785SOL     OW66795   3.562   0.453  10.543  0.1789 -0.2399 -0.3124
21785SOL    HW166796   3.567   0.536  10.495  1.0821  0.7702  1.3947
21785SOL    HW266797   3.608   0.390  10.488 -0.3685  0.4354 -1.5688
21786SOL     OW66798   4.830   2.331   4.048 -0.0298 -0.6144 -0.4709
21786SOL    HW166799   4.750   2.366   4.087  0.2914  0.9452 -1.1325
21786SOL    HW266800   4.812   2.237   4.037 -0.8706 -0.7479  1.5233
21787SOL     OW66801   4.562   1.066   7.513  0.1152 -0.1382 -0.0565
21787SOL    HW166802   4.590   1.047   7.603 -1.1765 -0.0918  0.3715
21787SOL    HW266803   4.475   1.028   7.507 -0.1295  0.5508 -1.0538
21788SOL     OW66804   3.286   3.420   4.391 -0.3378  0.5355  0.4675
21788SOL    HW166805   3.200   3.461   4.390 -0.1031  1.1165 -2.2295
21788SOL    HW266806   3.304   3.398   4.300  1.6239 -1.2207  1.1878
21789SOL     OW66807   5.933   4.646  11.290 -0.2383 -0.6202  0.3446
21789SOL    HW166808   5.840   4.655  11.268 -0.2787  0.3490  0.8563
21789SOL    HW266809   5.974   4.616  11.208 -0.8856 -0.3454 -0.0922
21790SOL     OW66810   4.606   0.284   7.939  0.2909 -0.1476 -0.2364
21790SOL    HW166811   4.671   0.354   7.930 -1.0283  0.8779 -2.9378
21790SOL    HW266812   4.534   0.326   7.986  0.1344 -0.1683 -0.4570
21791SOL     OW66813   2.961   1.475   9.365  0.5737  0.3113  0.2922
21791SOL    HW166814   2.983   1.565   9.392 -0.6738  0.4878  0.7988
21791SOL    HW266815   2.866   1.473   9.367  0.5715 -1.7496  2.8118
21792SOL     OW66816   1.401   2.433   5.003  0.4693 -0.0821 -0.7981
21792SOL    HW166817   1.492   2.404   5.010  0.5243  0.2249 -0.2160
21792SOL    HW266818   1.395   2.473   4.916  1.0484  0.4297 -0.6122
21793SOL     OW66819   5.556   7.664   4.187 -0.0603  0.3077 -0.0891
21793SOL    HW166820   5.515   7.598   4.131  0.3783 -0.9458  1.0183
21793SOL    HW266821   5.645   7.673   4.152 -0.6499  1.6837 -1.3540
21794SOL     OW66822   3.413   7.101   6.221 -0.5220  0.1813 -0.3943
21794SOL    HW166823   3.405   7.193   6.245  0.3824  0.8965 -2.6103
21794SOL    HW266824   3.485   7.098   6.158 -2.0429 -1.6350 -2.2132
21795SOL     OW66825   3.472   1.571   3.455 -0.5569  0.0522 -0.1367
21795SOL    HW166826   3.513   1.634   3.396 -1.2422 -0.5846 -1.3403
21795SOL    HW266827   3.419   1.624   3.514 -0.6177  0.6537 -0.7160
21796SOL     OW66828   5.047   0.850   1.504  0.0469 -0.1968  0.0409
21796SOL    HW166829   5.009   0.782   1.560  0.8758 -1.9273 -1.3980
21796SOL    HW266830   5.141   0.844   1.519  0.0927  1.5845  0.8454
21797SOL     OW66831   3.255   5.476   8.078 -0.0377 -0.2674 -0.3557
21797SOL    HW166832   3.239   5.563   8.042  0.3430 -0.0151  0.0781
21797SOL    HW266833   3.298   5.492   8.161  0.9472 -0.8832 -0.7305
21798SOL     OW66834   1.372   4.394   3.393 -0.1776 -0.0844  0.1696
21798SOL    HW166835   1.433   4.447   3.342 -0.4225  0.2816  0.2481
21798SOL    HW266836   1.346   4.451   3.466  0.2469 -0.6376  0.7598
21799SOL     OW66837   0.711   1.230   8.225 -0.1418  0.0216  0.5202
21799SOL    HW166838   0.710   1.222   8.130 -0.5093  1.2698  0.4094
21799SOL    HW266839   0.790   1.182   8.252 -0.0261 -0.3238 -0.4075
21800SOL     OW66840   2.363   6.020   8.019  0.1583 -0.1339  0.2864
21800SOL    HW166841   2.456   6.045   8.018  0.1224 -0.0115 -0.4584
21800SOL    HW266842   2.365   5.925   8.030  0.3359 -0.0268  1.3176
21801SOL     OW66843   4.708   6.899   2.179  0.5193  0.2550  0.3299
21801SOL    HW166844   4.627   6.869   2.137  0.4957  0.5852  0.1347
21801SOL    HW266845   4.776   6.846   2.138  0.7970  2.1942 -1.9322
21802SOL     OW66846   3.237   6.564   7.839 -0.3296 -0.5029  0.5476
21802SOL    HW166847   3.187   6.578   7.920  0.9427 -0.7176  1.3995
21802SOL    HW266848   3.305   6.501   7.864 -0.8431 -1.7692 -1.0806
21803SOL     OW66849   3.410   6.952   1.991 -0.2722  0.1447  0.3129
21803SOL    HW166850   3.426   7.038   1.951 -1.5454  0.8723  1.2872
21803SOL    HW266851   3.356   6.971   2.067 -1.3884 -1.6252  0.0098
21804SOL     OW66852   0.946   1.717  10.792  0.4050 -0.0250 -0.0384
21804SOL    HW166853   0.954   1.709  10.697  1.1347  0.9220 -0.0690
21804SOL    HW266854   0.856   1.747  10.806  0.4772  0.3999 -0.4679
21805SOL     OW66855   1.152   1.627   1.059 -0.6690 -0.5550 -0.0523
21805SOL    HW166856   1.172   1.720   1.072  0.7266 -0.7906 -0.2979
21805SOL    HW266857   1.132   1.594   1.146 -1.0295 -0.0601  0.0579
21806SOL     OW66858   4.335   4.435  10.721 -0.0796  0.5158  0.4662
21806SOL    HW166859   4.396   4.401  10.786  1.0193  0.7443 -0.4047
21806SOL    HW266860   4.293   4.509  10.763  0.2434  0.3438  1.0954
21807SOL     OW66861   7.149   7.577   1.463  0.2920 -0.2312  0.3507
21807SOL    HW166862   7.144   7.581   1.559  3.0485  2.2653  0.5383
21807SOL    HW266863   7.146   7.483   1.443  0.6833 -0.8873  2.9735
21808SOL     OW66864   5.190   1.267  11.366 -0.1805  0.6734 -0.5462
21808SOL    HW166865   5.115   1.258  11.307 -1.2080  3.0941  0.2339
21808SOL    HW266866   5.157   1.321  11.438  1.1565 -1.7183  2.0650
21809SOL     OW66867   4.722   2.269   4.861  0.4804 -0.0322  0.7254
21809SOL    HW166868   4.797   2.325   4.880  0.2873  1.0872 -1.5438
21809SOL    HW266869   4.760   2.182   4.847  1.3409  0.4621 -0.0890
21810SOL     OW66870   4.084   5.354  11.228  0.1448  0.2218  0.0932
21810SOL    HW166871   4.108   5.429  11.283 -1.5558  1.0929 -0.3075
21810SOL    HW266872   3.992   5.338  11.248  0.4602 -1.8036  0.1722
21811SOL     OW66873   6.539   3.307  12.282 -0.4185 -0.3621 -0.4317
21811SOL    HW166874   6.537   3.327  12.189  0.4716  1.6517 -0.0825
21811SOL    HW266875   6.459   3.346  12.317 -0.7720 -1.1474 -0.3384
21812SOL     OW66876   3.467   2.508   7.262  0.2004  0.3901 -0.0109
21812SOL    HW166877   3.521   2.567   7.315  1.2227  0.4256 -1.0508
21812SOL    HW266878   3.473   2.424   7.308 -1.3539  1.0525  1.5382
21813SOL     OW66879   2.561   3.782   3.131 -0.5150 -0.2974 -0.3234
21813SOL    HW166880   2.606   3.818   3.054  0.3716  1.4871  0.9447
21813SOL    HW266881   2.492   3.845   3.150 -1.8440 -1.6057 -0.6095
21814SOL     OW66882   3.031   6.818   1.196 -0.2987  0.0858 -0.6542
21814SOL    HW166883   3.014   6.739   1.145  0.5745  0.6035 -1.7813
21814SOL    HW266884   3.123   6.838   1.179  0.1888 -0.0369  1.5850
21815SOL     OW66885   1.984   3.621   2.432 -0.1298  0.2467  0.1361
21815SOL    HW166886   1.890   3.629   2.420 -0.0080  0.1630 -1.0191
21815SOL    HW266887   2.013   3.708   2.460 -0.7089 -0.0680  1.8359
21816SOL     OW66888   4.968   5.671   6.398  0.1924  0.7316 -0.2676
21816SOL    HW166889   4.924   5.670   6.483  1.2643  0.9346  0.3220
21816SOL    HW266890   4.911   5.621   6.340  0.1880 -0.8135  0.9861
21817SOL     OW66891   1.188   5.972  12.131 -0.1312  0.0383 -0.3643
21817SOL    HW166892   1.228   6.026  12.199 -1.0552 -1.5315  1.5238
21817SOL    HW266893   1.113   6.023  12.101  0.1144  0.6259 -0.0031
21818SOL     OW66894   7.158   5.285   1.472 -0.1980 -0.0542 -0.6780
21818SOL    HW166895   7.196   5.200   1.450  1.0074  0.3592 -0.2838
21818SOL    HW266896   7.234   5.341   1.490 -1.0075  0.3206  2.0286
21819SOL     OW66897   1.463   5.231   5.340 -0.0751 -0.2795 -0.0666
21819SOL    HW166898   1.400   5.181   5.289 -0.4411  1.1099 -1.0497
21819SOL    HW266899   1.440   5.213   5.432 -1.1277 -0.7262 -0.4066
21820SOL     OW66900   6.633   2.641   9.860 -0.6420 -0.4504  0.1013
21820SOL    HW166901   6.632   2.720   9.914 -2.5490 -0.8469  0.6838
21820SOL    HW266902   6.641   2.674   9.770 -0.3499  0.3416  0.4091
21821SOL     OW66903   6.934   2.768   2.662  0.0983  0.2275 -0.4739
21821SOL    HW166904   6.955   2.834   2.596  1.8029  1.2589  0.9767
21821SOL    HW266905   6.946   2.684   2.617 -1.0438  0.8647 -2.0569
21822SOL     OW66906   1.385   6.632   6.891  0.0535 -0.1534 -0.4901
21822SOL    HW166907   1.318   6.581   6.847 -1.1164 -0.4677  1.5516
21822SOL    HW266908   1.444   6.566   6.929 -0.4313  0.0245  0.6004
21823SOL     OW66909   0.180   6.029   2.966  0.5110  0.0175 -0.0634
21823SOL    HW166910   0.157   6.022   3.059  0.3479  0.9384 -0.0248
21823SOL    HW266911   0.256   5.972   2.956 -0.4741 -1.3927  0.2670
21824SOL     OW66912   7.375   5.700   9.158 -0.6634  0.5500 -0.0764
21824SOL    HW166913   7.322   5.719   9.080 -0.1687  0.5993 -0.4078
21824SOL    HW266914   7.461   5.739   9.139  0.0137 -0.9482 -0.2756
21825SOL     OW66915   1.951   3.526   0.235 -0.0028 -0.1104 -0.2425
21825SOL    HW166916   1.890   3.541   0.163 -1.4529  0.4764  1.0569
21825SOL    HW266917   2.008   3.603   0.234 -0.2641  0.0833 -0.4969
21826SOL     OW66918   5.159   0.943   9.457 -0.6504 -0.0239  0.5424
21826SOL    HW166919   5.252   0.955   9.436 -1.1028  0.2551 -1.5843
21826SOL    HW266920   5.113   1.002   9.397 -2.2569 -0.9256  0.8188
21827SOL     OW66921   4.943   3.931   2.822  0.0966 -0.1687  0.0678
21827SOL    HW166922   4.948   3.996   2.892  2.5737 -0.9502  0.7497
21827SOL    HW266923   4.851   3.926   2.800 -0.4396  1.9917  1.4818
21828SOL     OW66924   6.831   7.434   2.345 -0.0380  0.5939  0.6555
21828SOL    HW166925   6.811   7.388   2.263  0.1313 -0.3928  1.1469
21828SOL    HW266926   6.902   7.493   2.323 -0.0444  0.3872  0.0656
21829SOL     OW66927   2.198   7.529   2.836 -0.3148 -0.1978 -0.3654
21829SOL    HW166928   2.226   7.609   2.791 -0.5528  0.6090  0.8544
21829SOL    HW266929   2.191   7.463   2.767 -0.7002  0.9903 -1.4999
21830SOL     OW66930   1.016   5.168  11.980 -0.2259 -1.0021  0.6452
21830SOL    HW166931   1.089   5.132  11.930  0.8991  0.1874  1.3671
21830SOL    HW266932   1.055   5.196  12.063 -1.1377  1.2369  0.3889
21831SOL     OW66933   7.090   2.666   3.777 -0.1369 -0.2143  0.0697
21831SOL    HW166934   7.163   2.608   3.757 -0.1651  0.2169 -1.4172
21831SOL    HW266935   7.121   2.721   3.849  0.3725 -1.1412  0.5774
21832SOL     OW66936   1.066   1.761   7.434 -0.1883 -0.1247 -0.6157
21832SOL    HW166937   1.147   1.715   7.412 -0.0094  0.0863 -0.3965
21832SOL    HW266938   1.095   1.848   7.463 -0.3925 -0.5177  0.8209
21833SOL     OW66939   4.170   2.729   2.732  0.2401  0.1570 -0.1288
21833SOL    HW166940   4.205   2.724   2.643 -0.9187 -1.1930 -0.5457
21833SOL    HW266941   4.217   2.802   2.772  1.2699  0.3640 -1.6251
21834SOL     OW66942   6.910   1.079   7.232 -0.3660  0.0131 -0.2879
21834SOL    HW166943   6.894   1.143   7.163 -2.9231  0.9064  1.0005
21834SOL    HW266944   7.004   1.087   7.252  0.3397  0.0581 -3.2194
21835SOL     OW66945   5.315   3.177   0.069  0.3551 -0.1196 -0.2888
21835SOL    HW166946   5.377   3.104   0.076 -0.4152 -0.6397  3.3951
21835SOL    HW266947   5.349   3.244   0.128 -1.6951  0.2063  0.6421
21836SOL     OW66948   7.898   4.027   3.904  0.3429 -0.3662 -0.3581
21836SOL    HW166949   7.813   4.065   3.925  1.4204  1.7985  0.4172
21836SOL    HW266950   7.889   3.934   3.924 -2.3365 -0.5773 -2.0063
21837SOL     OW66951   2.446   2.691   9.405 -0.1411  1.1022  0.2739
21837SOL    HW166952   2.362   2.737   9.398  0.2269  1.5801 -1.8025
21837SOL    HW266953   2.470   2.673   9.314  0.7806 -1.3381  0.9205
21838SOL     OW66954   2.253   2.988   7.469  0.3500  0.3561  0.0134
21838SOL    HW166955   2.232   2.939   7.549 -0.4537 -2.8516 -1.9805
21838SOL    HW266956   2.348   2.983   7.462  0.2573 -1.5165 -0.4200
21839SOL     OW66957   6.790   5.229   8.275 -0.3107 -0.4919  0.5382
21839SOL    HW166958   6.758   5.294   8.212  1.8196 -0.6516 -0.8228
21839SOL    HW266959   6.712   5.179   8.299 -1.8989  2.1052  1.1377
21840SOL     OW66960   5.003   4.857  10.189 -0.0557  0.1398  0.2741
21840SOL    HW166961   4.937   4.792  10.165  0.2628  0.9197 -3.2676
21840SOL    HW266962   5.085   4.808  10.191  0.0097  0.1594 -1.1370
21841SOL     OW66963   7.028   3.202   0.798 -0.2194  0.1799  0.4146
21841SOL    HW166964   7.004   3.292   0.819 -0.4000  0.2435 -0.0548
21841SOL    HW266965   7.011   3.194   0.704  0.5309 -0.1098  0.3006
21842SOL     OW66966   7.910   2.972   7.769  0.0633  0.1515 -0.2154
21842SOL    HW166967   7.974   2.923   7.820 -0.4378 -1.0211 -0.6632
21842SOL    HW266968   7.826   2.933   7.794 -0.2125 -0.3097 -1.7376
21843SOL     OW66969   6.350   3.242   9.740  0.2668 -0.1927 -0.0779
21843SOL    HW166970   6.363   3.303   9.667  1.6029 -0.8248 -0.4162
21843SOL    HW266971   6.365   3.155   9.701 -2.4664 -0.8603  0.1791
21844SOL     OW66972   0.397   5.824   9.671 -0.0973 -0.0681  0.4604
21844SOL    HW166973   0.357   5.778   9.597  0.0263 -0.6952  0.7736
21844SOL    HW266974   0.323   5.864   9.717 -0.3884 -1.2334  1.0460
21845SOL     OW66975   3.983   2.082   9.000 -0.4659 -0.1593  1.1683
21845SOL    HW166976   3.971   2.175   8.981  1.9841 -0.1900 -1.1511
21845SOL    HW266977   3.898   2.053   9.034 -1.4528  2.7714  1.4546
21846SOL     OW66978   2.190   0.680   6.410 -0.1666 -0.6296  0.0067
21846SOL    HW166979   2.224   0.598   6.446  0.1328 -0.0726  1.0314
21846SOL    HW266980   2.150   0.655   6.327  0.1749 -1.7657  0.1693
21847SOL     OW66981   1.353   2.494   7.909  0.3794  0.1365 -0.1007
21847SOL    HW166982   1.426   2.494   7.970  0.7823 -0.7537 -0.5594
21847SOL    HW266983   1.381   2.552   7.838 -0.3403  1.6645  0.8115
21848SOL     OW66984   1.051   7.364   0.048 -0.2846 -0.1071  0.0752
21848SOL    HW166985   0.986   7.333  -0.015  0.0850  0.7337 -0.7240
21848SOL    HW266986   1.120   7.403  -0.005  0.2818  0.1504  0.9804
21849SOL     OW66987   1.554   2.263   6.767  0.1890 -0.1957 -0.5515
21849SOL    HW166988   1.535   2.287   6.677  0.0581 -0.0223 -0.4790
21849SOL    HW266989   1.631   2.208   6.762  0.3693  0.0750 -0.7408
21850SOL     OW66990   1.098   5.624   6.884  0.6645  0.1697  0.1175
21850SOL    HW166991   1.119   5.632   6.791  0.0397  3.3075  0.1415
21850SOL    HW266992   1.008   5.590   6.885  0.5401  0.4703 -0.4437
21851SOL     OW66993   4.460   7.438   7.217 -0.3655 -0.0299  1.0010
21851SOL    HW166994   4.443   7.488   7.137 -0.8120 -2.4715 -0.5611
21851SOL    HW266995   4.516   7.495   7.269 -1.0917  2.1737 -0.4774
21852SOL     OW66996   0.184   3.111  11.254  0.3229 -0.5603 -0.7046
21852SOL    HW166997   0.209   3.075  11.169  1.5043  1.6395 -1.3888
21852SOL    HW266998   0.264   3.153  11.286 -0.7970  0.9557  0.2315
21853SOL     OW66999   7.651   1.292   8.651  0.1763  0.0252  0.2322
21853SOL    HW167000   7.590   1.289   8.577  0.7378  0.2175 -0.2385
21853SOL    HW267001   7.701   1.373   8.638  2.1652 -1.2778 -0.6842
21854SOL     OW67002   6.966   0.627   1.305 -0.7201  0.7420  0.1408
21854SOL    HW167003   6.966   0.676   1.387  0.5384  1.2411 -0.1397
21854SOL    HW267004   6.981   0.694   1.238 -1.6048  0.3208 -0.4978
21855SOL     OW67005   5.560   6.066   8.754  0.2497 -0.2282  0.6730
21855SOL    HW167006   5.464   6.069   8.755  0.2570  1.8412  1.7739
21855SOL    HW267007   5.581   5.980   8.718 -2.0234 -1.4662  2.0430
21856SOL     OW67008   0.288   3.229   0.392  0.7395  0.0053 -0.2063
21856SOL    HW167009   0.326   3.317   0.390  2.5618 -0.5510  2.6338
21856SOL    HW267010   0.358   3.174   0.428 -0.4222 -2.6031 -1.6496
21857SOL     OW67011   2.787   0.100   0.615  0.5596 -0.3543  0.0907
21857SOL    HW167012   2.722   0.033   0.638  0.1946  0.5023  1.7257
21857SOL    HW267013   2.871   0.054   0.618  0.3190 -0.7488  1.2648
21858SOL     OW67014   1.905   1.641   9.118  0.0658  0.8523  0.3355
21858SOL    HW167015   1.969   1.582   9.157 -1.1426 -1.2399 -0.6928
21858SOL    HW267016   1.887   1.605   9.032 -2.0725  1.6784  0.3592
21859SOL     OW67017   3.978   4.340   6.944  1.0227 -0.1322 -0.2657
21859SOL    HW167018   3.911   4.400   6.913 -0.5089 -0.8937  1.3965
21859SOL    HW267019   4.025   4.389   7.011  0.0714 -0.5968  0.7654
21860SOL     OW67020   3.626   1.764   6.738  0.0652  0.3018 -0.2696
21860SOL    HW167021   3.675   1.817   6.800  0.9281  1.0459 -1.5375
21860SOL    HW267022   3.640   1.674   6.767  3.8318  0.2844 -1.5958
21861SOL     OW67023   7.251   3.273   7.519  0.1069  0.9685 -0.4342
21861SOL    HW167024   7.325   3.310   7.566 -1.1441  1.9479  0.8494
21861SOL    HW267025   7.191   3.346   7.507 -0.5660  0.2428 -1.6269
21862SOL     OW67026   3.102   6.088   8.387 -0.1618 -0.6472  0.3507
21862SOL    HW167027   3.018   6.071   8.428 -0.6199  0.9424  0.1312
21862SOL    HW267028   3.085   6.158   8.325  0.7784 -2.1020 -1.6711
21863SOL     OW67029   5.792   1.158   4.524  0.0932 -0.0185 -0.4014
21863SOL    HW167030   5.771   1.250   4.508 -1.9326 -0.0123  1.7653
21863SOL    HW267031   5.876   1.160   4.569 -0.5859  0.9055  0.8702
21864SOL     OW67032   7.156   4.410   9.371  0.2327  0.0099  0.6301
21864SOL    HW167033   7.232   4.357   9.392  0.4228  0.3575  0.8352
21864SOL    HW267034   7.144   4.467   9.447 -1.1997 -1.1282  1.3031
21865SOL     OW67035   5.441   2.884  12.212  0.1527  0.1351  0.3335
21865SOL    HW167036   5.387   2.892  12.291 -0.4585 -0.0007 -0.0659
21865SOL    HW267037   5.530   2.896  12.243 -0.2390  2.7518  0.6671
21866SOL     OW67038   6.308   4.229   4.409  0.2259 -0.2952  0.0541
21866SOL    HW167039   6.280   4.317   4.433  0.4577 -0.3139  0.3883
21866SOL    HW267040   6.356   4.197   4.485  2.1169  0.1355 -0.9104
21867SOL     OW67041   2.194   7.744   6.115 -0.3920 -0.4243 -0.2820
21867SOL    HW167042   2.121   7.685   6.135 -0.4299 -0.4322 -0.4408
21867SOL    HW267043   2.238   7.757   6.198 -1.6297  1.0088  0.2051
21868SOL     OW67044   6.871   3.524   1.982  0.1350 -0.4959 -0.0649
21868SOL    HW167045   6.852   3.609   1.943 -1.8464  0.2615  2.3144
21868SOL    HW267046   6.950   3.539   2.035  1.0061 -0.7351 -1.2476
21869SOL     OW67047   6.546   1.578   4.014 -0.1424  0.0050 -0.0597
21869SOL    HW167048   6.592   1.502   3.977  1.9136 -0.5139  3.1566
21869SOL    HW267049   6.587   1.653   3.971 -0.3360 -0.5967 -1.3531
21870SOL     OW67050   1.142   5.720   2.958  0.3401  0.2587  0.2791
21870SOL    HW167051   1.144   5.627   2.933  1.8032  0.2910  0.1683
21870SOL    HW267052   1.196   5.764   2.892  1.7843  0.7847  1.7280
21871SOL     OW67053   6.083   2.393   5.073  0.1913  0.6655  0.6119
21871SOL    HW167054   6.029   2.472   5.080  1.0144  1.2535  0.4031
21871SOL    HW267055   6.113   2.376   5.162  0.3064  0.7906  0.5960
21872SOL     OW67056   7.275   5.151   8.978  0.6632  0.1583 -0.2774
21872SOL    HW167057   7.221   5.161   9.056  1.3337 -0.9001  0.3374
21872SOL    HW267058   7.288   5.057   8.969 -0.5093  0.1277 -2.4500
21873SOL     OW67059   4.475   1.264   7.737 -0.0919 -0.1305  0.6636
21873SOL    HW167060   4.505   1.250   7.647 -1.8049 -1.7030  0.2926
21873SOL    HW267061   4.556   1.271   7.788  0.9973  2.9112 -1.2018
21874SOL     OW67062   2.376   7.753   2.739  0.0306 -0.0185  0.0228
21874SOL    HW167063   2.371   7.847   2.756  0.1501  0.4018 -1.9884
21874SOL    HW267064   2.355   7.744   2.646  1.1952 -1.8531 -0.1267
21875SOL     OW67065   1.489   3.085   8.242 -0.4074  0.0522 -0.2107
21875SOL    HW167066   1.490   3.004   8.190 -0.2491 -0.7474  1.0031
21875SOL    HW267067   1.413   3.076   8.299 -0.0126  0.4687  0.3838
21876SOL     OW67068   7.311   3.456   1.431 -0.2375 -0.2004 -0.0255
21876SOL    HW167069   7.296   3.524   1.365 -1.9446 -1.0684 -0.6059
21876SOL    HW267070   7.402   3.468   1.458 -0.3357  1.9467 -0.4926
21877SOL     OW67071   7.440   2.543   0.059 -0.6666 -0.1871  0.2105
21877SOL    HW167072   7.430   2.463   0.111 -0.8046 -0.3838 -0.1161
21877SOL    HW267073   7.455   2.513  -0.030  0.1103  0.1477  0.2194
21878SOL     OW67074   0.045   7.623   1.636 -0.2974  0.0651  0.4056
21878SOL    HW167075   0.106   7.693   1.612 -1.9903  1.7502  0.7403
21878SOL    HW267076   0.053   7.558   1.566 -0.4797  1.8164 -1.3223
21879SOL     OW67077   0.313   3.647   9.877 -0.2205 -0.1980 -0.3153
21879SOL    HW167078   0.276   3.644   9.789  0.4868  1.4534 -0.7073
21879SOL    HW267079   0.363   3.729   9.879  2.2008 -1.5852  0.6392
21880SOL     OW67080   4.898   0.294   5.589 -0.4896  0.1185 -0.2431
21880SOL    HW167081   4.951   0.304   5.509 -2.5499  2.2861 -1.4547
21880SOL    HW267082   4.959   0.313   5.660  0.9424  0.0780 -1.4026
21881SOL     OW67083   1.402   6.336  10.531  0.2840  0.1585 -0.0932
21881SOL    HW167084   1.385   6.374  10.618  0.9547  0.0753  0.0797
21881SOL    HW267085   1.377   6.244  10.540  0.9432  0.0024  0.2014
21882SOL     OW67086   6.480   3.890  12.174 -0.0464 -0.1311 -0.3233
21882SOL    HW167087   6.458   3.855  12.261  3.0798 -1.3727  0.0662
21882SOL    HW267088   6.498   3.813  12.120  0.4299  0.6929 -1.3808
21883SOL     OW67089   6.310   5.549   0.364  0.7024  0.2330 -0.0787
21883SOL    HW167090   6.260   5.507   0.434  0.0820  1.8664  0.5052
21883SOL    HW267091   6.256   5.538   0.286 -0.3003  1.4250  0.4195
21884SOL     OW67092   4.411   6.680   2.786  0.3160  0.1049  0.2159
21884SOL    HW167093   4.432   6.594   2.751  0.0201  0.7003 -1.5624
21884SOL    HW267094   4.317   6.691   2.769  0.6481  1.3705 -1.0965
21885SOL     OW67095   6.018   5.146  10.814 -0.6122  0.1818 -0.8873
21885SOL    HW167096   5.926   5.137  10.838 -0.4777  1.0116  0.0038
21885SOL    HW267097   6.065   5.092  10.876 -0.2557  2.4100  0.9266
21886SOL     OW67098   2.571   0.198   5.329 -0.3149 -0.0350  0.4793
21886SOL    HW167099   2.520   0.279   5.335 -0.8285 -0.0919 -2.0481
21886SOL    HW267100   2.591   0.176   5.420 -1.5422  2.0465  1.3329
21887SOL     OW67101   7.099   3.838   8.917 -0.2114 -0.0835  0.5446
21887SOL    HW167102   7.166   3.775   8.890  0.6031  0.8779  0.2935
21887SOL    HW267103   7.044   3.849   8.839 -0.4528 -0.5784  0.6353
21888SOL     OW67104   1.154   3.769   9.291 -0.1614  0.0050 -0.4101
21888SOL    HW167105   1.239   3.769   9.247  0.9966 -0.5460  1.6731
21888SOL    HW267106   1.147   3.856   9.331 -0.5633  0.0215 -0.5050
21889SOL     OW67107   5.385   3.195  10.356 -0.0148 -0.9165  0.2009
21889SOL    HW167108   5.325   3.122  10.372 -0.5805 -0.5667 -0.2989
21889SOL    HW267109   5.466   3.169  10.400  0.6568 -3.0226 -2.0422
21890SOL     OW67110   7.885   1.653  11.810 -0.5718  0.3327  0.9652
21890SOL    HW167111   7.941   1.674  11.734  0.1919  0.7340  1.6279
21890SOL    HW267112   7.947   1.641  11.882 -1.3231  0.3318  1.6122
21891SOL     OW67113   1.343   7.550   2.441  0.5966  0.3523 -0.2401
21891SOL    HW167114   1.419   7.544   2.498  0.7771  1.9995 -0.2691
21891SOL    HW267115   1.323   7.644   2.436 -0.3278  0.1149 -1.6718
21892SOL     OW67116   0.255   5.429   7.102 -0.2408  0.1328 -0.5428
21892SOL    HW167117   0.229   5.496   7.166 -1.5785  0.3145 -1.2328
21892SOL    HW267118   0.320   5.473   7.047  1.1968 -0.1317  0.8472
21893SOL     OW67119   2.736   6.840   5.852 -0.6356  0.3219 -0.1471
21893SOL    HW167120   2.728   6.802   5.765  0.0821 -0.1951  0.0019
21893SOL    HW267121   2.768   6.768   5.907 -0.0226  0.9310  0.3135
21894SOL     OW67122   6.740   2.561   5.928  0.0110  0.7973  0.2618
21894SOL    HW167123   6.748   2.656   5.932  3.6837  0.7122 -1.1284
21894SOL    HW267124   6.803   2.529   5.993 -1.4842 -0.7353  1.0367
21895SOL     OW67125   3.358   1.222   5.725  0.0370 -0.4876 -0.3075
21895SOL    HW167126   3.299   1.223   5.799 -0.3884 -4.4413 -0.3785
21895SOL    HW267127   3.317   1.279   5.660  0.1003  2.5387  2.0858
21896SOL     OW67128   0.116   5.064   9.933  0.4708 -0.1833  0.0188
21896SOL    HW167129   0.170   5.104   9.865  1.1334 -0.8269  0.1530
21896SOL    HW267130   0.064   5.136   9.968  0.9428  0.3709 -0.4037
21897SOL     OW67131   0.684   1.951   3.811  0.2500  0.3373  0.2018
21897SOL    HW167132   0.771   1.970   3.847 -0.0508  0.7131  0.7516
21897SOL    HW267133   0.627   1.950   3.888 -0.2170  0.0111 -0.1500
21898SOL     OW67134   3.472   0.819   6.605  0.3524 -0.0706 -0.0551
21898SOL    HW167135   3.513   0.865   6.679  1.4746 -1.4266  0.2116
21898SOL    HW267136   3.545   0.796   6.548  0.2101 -3.3449  0.8589
21899SOL     OW67137   7.225   2.937   4.839 -0.1886  0.1970  0.1266
21899SOL    HW167138   7.283   2.901   4.772  0.7815 -0.4851  1.2617
21899SOL    HW267139   7.265   3.022   4.862  0.4615 -0.3065  0.9622
21900SOL     OW67140   3.746   1.158   4.055 -0.1317 -0.4874  0.3625
21900SOL    HW167141   3.696   1.239   4.065 -1.2639 -1.3111  1.7680
21900SOL    HW267142   3.750   1.144   3.960  1.8344  2.2155 -0.0592
21901SOL     OW67143   5.621   0.234   5.812 -0.0959 -0.6316  0.2074
21901SOL    HW167144   5.665   0.291   5.748 -3.2614 -0.2324 -1.8474
21901SOL    HW267145   5.616   0.149   5.769 -0.0289 -1.0564  1.0277
21902SOL     OW67146   1.778   6.990  11.012 -0.1867 -0.4669  0.0305
21902SOL    HW167147   1.728   7.071  11.020 -0.1736 -0.5281  0.7579
21902SOL    HW267148   1.734   6.941  10.942  0.5339  0.6807 -1.2792
21903SOL     OW67149   3.883   1.331  10.188  0.5296 -0.0054 -0.1703
21903SOL    HW167150   3.820   1.400  10.209  1.3414  0.8130 -0.3545
21903SOL    HW267151   3.901   1.343  10.094  0.8098 -0.3688 -0.1642
21904SOL     OW67152   2.034   6.004   5.439 -0.1254 -0.6362 -0.7469
21904SOL    HW167153   2.101   6.023   5.374  0.0680  0.3202 -0.2890
21904SOL    HW267154   2.079   5.954   5.507  0.4988  1.1283  0.2116
21905SOL     OW67155   3.646   5.002   7.690 -0.6425  0.1261 -0.1219
21905SOL    HW167156   3.601   5.056   7.754  0.0570 -1.2681  1.6127
21905SOL    HW267157   3.723   5.053   7.665 -1.3395  1.0230 -0.4943
21906SOL     OW67158   1.442   7.677  10.494 -0.1176 -0.1756 -0.2186
21906SOL    HW167159   1.382   7.607  10.519  1.2916 -1.2380  0.3432
21906SOL    HW267160   1.528   7.634  10.487  0.9274  1.5856  0.7996
21907SOL     OW67161   1.859   3.969  11.732  0.3805  0.0130 -0.2874
21907SOL    HW167162   1.779   4.016  11.710  0.6063  0.7535  0.4601
21907SOL    HW267163   1.928   4.017  11.688  0.6843  0.7631  0.9687
21908SOL     OW67164   5.477   6.380   4.549  0.2033 -0.4083 -0.0692
21908SOL    HW167165   5.451   6.465   4.585  0.2295 -1.1723  1.8678
21908SOL    HW267166   5.479   6.394   4.454 -0.4400  1.5594  0.1577
21909SOL     OW67167   1.148   5.045   8.476  0.3244 -0.1341  0.0594
21909SOL    HW167168   1.113   5.123   8.432  1.4226 -1.5234 -3.6282
21909SOL    HW267169   1.094   4.973   8.444  0.6507 -1.1808  1.7422
21910SOL     OW67170   6.757   5.019   9.306 -0.3138  0.2684  0.3453
21910SOL    HW167171   6.836   4.967   9.295  0.4891  1.0733  1.9371
21910SOL    HW267172   6.741   5.058   9.220  1.3377  0.5238  0.1268
21911SOL     OW67173   7.498   5.159   4.066  0.3051  0.3203 -0.0483
21911SOL    HW167174   7.518   5.066   4.059  0.1371  0.1287  1.6389
21911SOL    HW267175   7.441   5.165   4.143  0.3657  1.8214 -0.1027
21912SOL     OW67176   4.319   4.945   9.475 -0.6079  0.7365 -0.8129
21912SOL    HW167177   4.328   5.015   9.540 -1.2020  0.7194 -0.7061
21912SOL    HW267178   4.351   4.984   9.394  1.6687  0.2598 -0.2238
21913SOL     OW67179   2.408   5.425   9.617  0.3512  0.1731  0.5179
21913SOL    HW167180   2.380   5.469   9.536  0.1669  1.9421  1.4980
21913SOL    HW267181   2.490   5.382   9.594 -0.2532 -0.3014 -0.8838
21914SOL     OW67182   6.303   1.965   8.289  0.2038  0.1354  0.1492
21914SOL    HW167183   6.298   1.928   8.201  1.1032  0.7959 -0.1992
21914SOL    HW267184   6.285   2.058   8.277  2.4727  0.6507  0.2970
21915SOL     OW67185   5.299   1.866   9.167 -0.4212 -0.1134  0.2422
21915SOL    HW167186   5.392   1.888   9.172  0.1466 -2.1451 -0.5333
21915SOL    HW267187   5.270   1.899   9.082  0.5863 -2.6594 -1.2113
21916SOL     OW67188   6.026   1.791   1.706 -0.5043  0.0455 -0.1919
21916SOL    HW167189   5.983   1.756   1.784 -0.4893 -1.4384 -0.8135
21916SOL    HW267190   5.967   1.861   1.677  0.7453  2.4157  2.5141
21917SOL     OW67191   3.776   5.543   6.802  0.4393  0.2099 -0.3949
21917SOL    HW167192   3.741   5.491   6.730  0.2273  0.3661 -0.4028
21917SOL    HW267193   3.722   5.519   6.878  0.0986  0.7053 -0.4832
21918SOL     OW67194   4.075   5.727  11.604  0.0463  0.0007  0.0365
21918SOL    HW167195   4.060   5.821  11.590 -1.4808 -0.2377 -0.0927
21918SOL    HW267196   3.989   5.692  11.625 -0.5859 -2.3044 -5.0580
21919SOL     OW67197   4.833   2.726   1.882  0.0019  0.3070 -0.5439
21919SOL    HW167198   4.904   2.789   1.888  1.3140 -1.1371 -0.3730
21919SOL    HW267199   4.757   2.771   1.920  0.7194  1.9882 -1.0247
21920SOL     OW67200   3.188   5.124  11.028  0.0870 -0.2070 -0.0427
21920SOL    HW167201   3.153   5.038  11.006 -0.6261 -0.5953  2.2988
21920SOL    HW267202   3.276   5.106  11.063  0.8476  0.2909 -1.6022
21921SOL     OW67203   6.799   0.201   9.807 -0.1558 -0.3000  0.1873
21921SOL    HW167204   6.727   0.144   9.833  0.5337 -1.9324 -1.2876
21921SOL    HW267205   6.824   0.246   9.887 -0.5424 -2.3155  1.5087
21922SOL     OW67206   0.304   0.691   0.693  0.0921  0.3140  0.4153
21922SOL    HW167207   0.254   0.610   0.683 -0.0544  0.5521 -1.0896
21922SOL    HW267208   0.368   0.671   0.761 -0.6785 -0.6842  0.8793
21923SOL     OW67209   6.739   6.438   7.884 -0.4782  0.4065 -0.8281
21923SOL    HW167210   6.793   6.469   7.811  1.0644 -2.0078 -0.8298
21923SOL    HW267211   6.708   6.352   7.856 -0.4966 -0.2442  1.0514
21924SOL     OW67212   1.420   5.670   6.839 -0.2220 -0.3185  0.4177
21924SOL    HW167213   1.440   5.753   6.795 -0.1114 -1.2988 -1.4883
21924SOL    HW267214   1.394   5.695   6.928 -0.3916  1.7625 -0.1736
21925SOL     OW67215   1.854   4.826   3.841  0.1822 -0.3665  0.1123
21925SOL    HW167216   1.778   4.795   3.793 -0.1532  0.7360 -0.1128
21925SOL    HW267217   1.820   4.849   3.928  0.3651 -0.3832  0.1893
21926SOL     OW67218   0.479   3.137   7.750 -0.2336  0.4749 -0.7108
21926SOL    HW167219   0.443   3.225   7.740 -0.0652  0.3929 -2.2502
21926SOL    HW267220   0.564   3.140   7.706  0.1688 -0.2306 -0.0109
21927SOL     OW67221   6.684   0.103  10.841  0.4630 -0.3864 -0.1982
21927SOL    HW167222   6.739   0.178  10.819  0.5625 -0.2894  0.3757
21927SOL    HW267223   6.722   0.067  10.921 -0.5954 -0.0171  0.4976
21928SOL     OW67224   2.639   1.797   1.080  0.2161 -0.3944 -0.6505
21928SOL    HW167225   2.651   1.702   1.089  0.7356 -0.7310 -3.8483
21928SOL    HW267226   2.544   1.808   1.073 -0.0086 -0.3805  1.6621
21929SOL     OW67227   4.032   2.642   0.255 -0.2370  0.0705  0.3098
21929SOL    HW167228   4.124   2.667   0.267  0.0867 -1.0532  0.2854
21929SOL    HW267229   3.984   2.697   0.316  0.5125  0.2925  0.7120
21930SOL     OW67230   2.467   5.635   5.278 -0.0148  0.3066 -0.6271
21930SOL    HW167231   2.472   5.559   5.337 -0.2172 -0.2521 -1.3166
21930SOL    HW267232   2.374   5.661   5.281 -0.4672 -0.9503 -2.1812
21931SOL     OW67233   2.220   7.104  11.697  0.1784 -0.2906  0.1353
21931SOL    HW167234   2.158   7.120  11.768 -1.4793 -0.0939 -1.3081
21931SOL    HW267235   2.263   7.022  11.720 -2.6612 -1.9943 -0.1683
21932SOL     OW67236   4.590   6.480   4.549  0.2750  1.0130  0.2113
21932SOL    HW167237   4.548   6.512   4.469 -0.6452  0.2045  0.3569
21932SOL    HW267238   4.517   6.463   4.609  0.7491 -1.0248  0.2639
21933SOL     OW67239   1.602   5.488  10.099 -0.0089 -0.0544 -0.7121
21933SOL    HW167240   1.674   5.491  10.163 -0.6050 -1.0561  0.0393
21933SOL    HW267241   1.558   5.572  10.108  0.1168 -0.0573 -0.0388
21934SOL     OW67242   6.909   0.824   1.636 -0.0885 -0.0202 -0.2578
21934SOL    HW167243   6.959   0.869   1.704 -0.5908  2.3652 -1.3438
21934SOL    HW267244   6.974   0.804   1.568  0.1818 -1.2012  0.3365
21935SOL     OW67245   1.943   4.865  10.583 -0.2409 -0.5617  0.0820
21935SOL    HW167246   2.013   4.920  10.618  0.8090 -0.6705 -1.6924
21935SOL    HW267247   1.922   4.804  10.654  1.0840 -0.1721  0.8478
21936SOL     OW67248   1.463   0.284   4.711  0.4475 -0.0102  0.0161
21936SOL    HW167249   1.535   0.306   4.770  0.6576 -0.6061 -0.0096
21936SOL    HW267250   1.445   0.192   4.730  2.3275 -1.0682 -2.7430
21937SOL     OW67251   5.703   7.872  11.856  0.4208 -0.7188 -0.0067
21937SOL    HW167252   5.664   7.785  11.865  0.4444 -0.9590 -1.9348
21937SOL    HW267253   5.719   7.882  11.762 -0.5261  1.7779  0.0285
21938SOL     OW67254   5.536   4.313   2.122 -0.4490 -0.8687 -0.4862
21938SOL    HW167255   5.592   4.391   2.122 -0.4696 -0.7638  2.1428
21938SOL    HW267256   5.491   4.316   2.037  0.5409  1.2254 -1.0221
21939SOL     OW67257   4.532   3.278   0.337 -0.4395  0.8597 -0.5231
21939SOL    HW167258   4.596   3.212   0.309 -2.8728 -2.0680  0.2247
21939SOL    HW267259   4.585   3.353   0.365  2.4566 -0.0196 -3.0434
21940SOL     OW67260   6.813   0.961   8.217  0.0704  0.4509 -0.4228
21940SOL    HW167261   6.767   0.997   8.293  1.1153  0.0448  0.4287
21940SOL    HW267262   6.747   0.959   8.148 -0.8044  1.1913  0.3575
21941SOL     OW67263   5.672   2.305   3.010 -0.0957  0.3855 -0.1464
21941SOL    HW167264   5.601   2.280   2.951  0.2081  0.9533 -0.7676
21941SOL    HW267265   5.752   2.278   2.964  0.0914 -0.4825  0.6604
21942SOL     OW67266   7.304   1.170   1.579 -0.2430  0.4506 -0.1072
21942SOL    HW167267   7.290   1.137   1.491 -0.8107  2.5492 -0.8599
21942SOL    HW267268   7.312   1.265   1.569  0.6178  0.6718  1.9950
21943SOL     OW67269   1.174   0.945   5.500  0.3759  0.0666 -0.1409
21943SOL    HW167270   1.237   0.951   5.572  0.0936  1.7233  0.0115
21943SOL    HW267271   1.157   0.851   5.491  1.4711 -0.2813  1.0165
21944SOL     OW67272   6.911   7.477  11.422  0.3367 -0.4814 -0.2002
21944SOL    HW167273   6.932   7.556  11.373  0.8548 -0.4916 -0.0080
21944SOL    HW267274   6.992   7.425  11.420  0.0890 -0.8785 -0.0897
21945SOL     OW67275   1.041   4.821   8.375  0.2099 -0.4978 -0.2219
21945SOL    HW167276   0.948   4.801   8.367  0.2254 -0.3555 -0.8153
21945SOL    HW267277   1.073   4.824   8.284  0.4640  0.9477 -0.1054
21946SOL     OW67278   2.976   4.102   8.879  0.6765  0.1226  0.2817
21946SOL    HW167279   3.032   4.093   8.956 -0.3376  0.1790  1.0602
21946SOL    HW267280   3.021   4.054   8.810  1.8698  0.5140  0.7601
21947SOL     OW67281   1.455   7.169   1.390  0.1738 -0.0972 -0.2405
21947SOL    HW167282   1.458   7.081   1.353  1.1148 -1.0089  1.8659
21947SOL    HW267283   1.540   7.207   1.370  0.1046 -0.0057 -0.3623
21948SOL     OW67284   6.189   1.960  10.286 -0.2764  0.1373 -0.0387
21948SOL    HW167285   6.154   1.963  10.197  0.4125 -3.0766 -0.5376
21948SOL    HW267286   6.278   1.995  10.277 -0.2827  0.0260 -0.5710
21949SOL     OW67287   3.732   6.278   1.674  0.2064 -0.3106  0.1847
21949SOL    HW167288   3.643   6.313   1.673  0.8100  1.3923  1.2389
21949SOL    HW267289   3.722   6.190   1.712 -1.1739 -0.7842 -1.1466
21950SOL     OW67290   5.900   6.729   9.156 -0.0790 -0.1912 -0.2713
21950SOL    HW167291   5.955   6.652   9.137 -0.5483 -0.8983  1.1526
21950SOL    HW267292   5.812   6.693   9.167 -0.0837  0.3464  1.7169
21951SOL     OW67293   5.680   0.208   9.282  0.8592 -0.1940  0.0521
21951SOL    HW167294   5.706   0.251   9.200 -1.6889 -0.7014 -1.1393
21951SOL    HW267295   5.674   0.280   9.345 -1.5081  1.0836 -1.4284
21952SOL     OW67296   4.825   4.966   7.765 -0.0732 -0.2085  0.0146
21952SOL    HW167297   4.912   4.929   7.751  0.1345  0.6109 -0.9539
21952SOL    HW267298   4.838   5.031   7.834 -0.2780 -1.2931  1.1158
21953SOL     OW67299   3.702   4.311   2.230  0.8406 -0.3737 -0.2989
21953SOL    HW167300   3.785   4.358   2.232  0.1062  1.0393 -1.1024
21953SOL    HW267301   3.703   4.263   2.147  1.3652 -1.3551  0.2698
21954SOL     OW67302   1.211   5.199   9.648  0.3988  0.2295 -0.0967
21954SOL    HW167303   1.193   5.209   9.554 -1.6583 -0.7598  0.1488
21954SOL    HW267304   1.182   5.282   9.686 -2.3015 -0.6842  0.0581
21955SOL     OW67305   3.556   2.238  10.690 -0.1574  0.1200 -0.0492
21955SOL    HW167306   3.520   2.192  10.615 -1.0602  0.2513  0.2927
21955SOL    HW267307   3.560   2.330  10.663 -0.6151  0.1877  0.1110
21956SOL     OW67308   6.405   2.018   3.097 -0.0025 -0.1405 -0.2924
21956SOL    HW167309   6.389   1.947   3.158 -0.9838  0.6196  0.3680
21956SOL    HW267310   6.356   2.092   3.132  0.2741  0.6227 -1.4337
21957SOL     OW67311   3.659   5.907   1.879 -0.7576 -0.7030  0.1767
21957SOL    HW167312   3.608   5.831   1.908  1.1655 -1.8999  0.6236
21957SOL    HW267313   3.708   5.934   1.956  1.0925 -1.1425 -0.7953
21958SOL     OW67314   2.110   7.091   8.238 -0.1302  0.0867 -0.3790
21958SOL    HW167315   2.026   7.107   8.283 -0.0088 -0.1464 -0.0668
21958SOL    HW267316   2.153   7.024   8.291  1.1678  1.6558  0.6799
21959SOL     OW67317   7.019   2.466   4.530 -0.0876 -0.2586 -0.3182
21959SOL    HW167318   7.039   2.516   4.451  1.9401  2.2341  1.5976
21959SOL    HW267319   6.949   2.515   4.572 -0.6190 -1.1318 -0.1733
21960SOL     OW67320   5.583   1.149   1.674  0.1066 -0.3505  0.1998
21960SOL    HW167321   5.585   1.178   1.765 -0.3912  0.5161 -0.0539
21960SOL    HW267322   5.545   1.061   1.677  0.8287 -0.6531  0.8935
21961SOL     OW67323   0.094   4.365   0.795 -0.2043 -0.5713 -0.5106
21961SOL    HW167324   0.070   4.457   0.786 -0.5684 -0.7255 -1.2129
21961SOL    HW267325   0.019   4.325   0.837 -1.2756 -1.0575 -2.7230
21962SOL     OW67326   2.022   4.866   6.371 -0.0851  0.3157 -0.1971
21962SOL    HW167327   2.084   4.916   6.424 -0.6069  0.5213  0.2347
21962SOL    HW267328   1.984   4.930   6.311 -0.2182  0.2936 -0.1382
21963SOL     OW67329   6.429   0.152   2.072 -0.0552  0.1331 -0.6157
21963SOL    HW167330   6.354   0.203   2.103  1.2024  1.2094  0.7774
21963SOL    HW267331   6.443   0.086   2.139  0.4919  0.1955 -0.6648
21964SOL     OW67332   3.962   3.023   4.543  0.4275 -0.3814 -0.6522
21964SOL    HW167333   4.013   3.091   4.498  1.0257 -0.9506 -0.8517
21964SOL    HW267334   3.882   3.015   4.492 -0.3462  1.2282  0.2284
21965SOL     OW67335   4.717   2.538  12.193  0.4602 -0.2319  0.1125
21965SOL    HW167336   4.784   2.595  12.157  1.8835 -1.0755  1.3185
21965SOL    HW267337   4.684   2.489  12.118  0.0517  1.2750 -0.7397
21966SOL     OW67338   5.846   2.964   4.303  0.1786  0.5564 -0.0873
21966SOL    HW167339   5.805   2.950   4.217  0.5386  0.4902 -0.2533
21966SOL    HW267340   5.934   2.926   4.293  0.1030  0.2508  0.4189
21967SOL     OW67341   5.640   4.535   0.986 -0.2487  0.1559 -0.4763
21967SOL    HW167342   5.620   4.602   1.051 -0.3807 -1.2482  1.0305
21967SOL    HW267343   5.556   4.517   0.943 -1.2203 -1.8351  1.9777
21968SOL     OW67344   6.445   2.601   6.060 -0.0272  0.4182  0.6052
21968SOL    HW167345   6.539   2.586   6.061  0.2681  2.0042  1.9400
21968SOL    HW267346   6.436   2.693   6.034 -1.0723  0.7768  2.0831
21969SOL     OW67347   0.885   1.917   7.275 -0.8548 -0.2623  0.1438
21969SOL    HW167348   0.804   1.873   7.251 -2.0635  0.7723  2.1058
21969SOL    HW267349   0.925   1.860   7.341 -1.9312  0.9610  1.9559
21970SOL     OW67350   3.420   4.476   0.779 -0.3901 -0.0218 -0.2554
21970SOL    HW167351   3.363   4.551   0.760 -0.3427  0.3222  0.9342
21970SOL    HW267352   3.360   4.407   0.808 -0.3094 -0.0650 -0.1928
21971SOL     OW67353   1.128   3.101  11.037  0.5718  0.0697 -0.4933
21971SOL    HW167354   1.033   3.112  11.038  0.4169 -0.3280  2.9250
21971SOL    HW267355   1.162   3.188  11.019 -0.5801  1.4406  3.0811
21972SOL     OW67356   0.246   1.509  11.706 -0.1003  0.3907 -0.3620
21972SOL    HW167357   0.279   1.445  11.769 -1.2383 -0.6966 -0.8213
21972SOL    HW267358   0.320   1.566  11.688  1.2028 -1.2837 -0.5296
21973SOL     OW67359   4.110   6.727   4.438 -0.1607 -0.0785  0.0140
21973SOL    HW167360   4.128   6.650   4.492 -1.3936 -0.7842 -0.5301
21973SOL    HW267361   4.049   6.695   4.371 -0.6981  1.3727 -0.2218
21974SOL     OW67362   3.226   5.135   4.676  0.2891  0.0589  0.4282
21974SOL    HW167363   3.170   5.108   4.604 -0.6820  2.2975  0.2605
21974SOL    HW267364   3.207   5.228   4.688  4.4377  1.1548 -0.0247
21975SOL     OW67365   6.539   3.408   5.110 -0.0817  0.1057  0.4464
21975SOL    HW167366   6.558   3.324   5.151  2.5226  0.0868 -0.6067
21975SOL    HW267367   6.615   3.426   5.055 -1.7376  1.9283 -1.4158
21976SOL     OW67368   7.681   0.323   0.231  0.1026  0.1701 -0.8389
21976SOL    HW167369   7.601   0.376   0.239 -0.3819 -0.5307 -0.9225
21976SOL    HW267370   7.671   0.254   0.297 -0.4735 -1.2790 -2.3402
21977SOL     OW67371   6.046   2.943  11.789  0.0645  0.2306 -0.4632
21977SOL    HW167372   6.081   2.998  11.719  1.4554  0.6663  0.5463
21977SOL    HW267373   6.019   2.862  11.744 -0.2475  0.9740 -1.6697
21978SOL     OW67374   4.810   7.608  11.675 -0.4580 -0.2277 -0.0959
21978SOL    HW167375   4.742   7.641  11.616  0.8635  0.8658 -1.0622
21978SOL    HW267376   4.840   7.527  11.634  2.0785  1.6690 -2.3517
21979SOL     OW67377   0.800   7.268   8.939 -0.1900  0.0105  0.0774
21979SOL    HW167378   0.853   7.342   8.969  0.3238  0.2322 -1.2967
21979SOL    HW267379   0.715   7.305   8.919 -0.0628  0.1488 -0.2060
21980SOL     OW67380   3.641   2.006  12.192  0.3238  0.1031 -0.4374
21980SOL    HW167381   3.558   2.054  12.188  0.5038  0.3617 -1.3077
21980SOL    HW267382   3.644   1.958  12.109  0.1076 -1.4818  0.4368
21981SOL     OW67383   3.426   1.201   0.412 -0.1640 -0.3244  0.1734
21981SOL    HW167384   3.371   1.254   0.354  0.6737 -0.6397 -0.9721
21981SOL    HW267385   3.444   1.122   0.361  0.9435 -0.4275  0.6983
21982SOL     OW67386   1.939   1.122   8.286 -0.6204 -0.5273  0.1452
21982SOL    HW167387   1.949   1.045   8.342 -3.1000 -1.0125  0.0245
21982SOL    HW267388   1.845   1.129   8.271 -0.5291  2.7871  0.4704
21983SOL     OW67389   7.754   0.752  11.807 -0.1295 -0.4280  0.1288
21983SOL    HW167390   7.701   0.673  11.806 -1.4580  0.4243  0.5209
21983SOL    HW267391   7.773   0.767  11.900 -0.1910 -0.0964  0.0891
21984SOL     OW67392   2.272   3.591   0.090 -0.2393  0.3965 -0.3668
21984SOL    HW167393   2.365   3.615   0.086  0.0971 -0.9425 -1.4736
21984SOL    HW267394   2.228   3.657   0.037  0.0404  1.1820  0.3657
21985SOL     OW67395   2.741   1.637   8.624  0.1095 -0.7129  0.3637
21985SOL    HW167396   2.806   1.703   8.598  2.0638 -2.3832  0.7084
21985SOL    HW267397   2.794   1.562   8.652 -1.9758 -1.4350  2.6682
21986SOL     OW67398   7.906   1.554   4.845  0.1069  0.5360 -0.2632
21986SOL    HW167399   7.896   1.646   4.868  0.4163  0.6652 -0.6428
21986SOL    HW267400   7.832   1.536   4.787  0.2507  0.6416 -0.4802
21987SOL     OW67401   5.458   3.340   0.277  0.2653  0.1532  0.1247
21987SOL    HW167402   5.418   3.277   0.337  1.0467 -0.3799  0.0970
21987SOL    HW267403   5.423   3.425   0.304  1.6497  0.1059  2.2485
21988SOL     OW67404   7.149   4.934   4.244  0.0356 -0.1940 -0.5180
21988SOL    HW167405   7.125   4.969   4.158 -0.3331  1.5104  0.2311
21988SOL    HW267406   7.232   4.977   4.264 -0.0853 -0.2684  0.1462
21989SOL     OW67407   2.282   6.288   5.457  0.2299 -0.1346  0.0238
21989SOL    HW167408   2.244   6.249   5.378 -2.1772  1.3888  0.3337
21989SOL    HW267409   2.320   6.370   5.427  0.4345 -0.1463  0.2499
21990SOL     OW67410   2.455   5.371  11.213 -0.6061 -0.1375  0.3471
21990SOL    HW167411   2.416   5.451  11.178 -1.6714 -0.9887 -0.4819
21990SOL    HW267412   2.520   5.402  11.277 -2.1522  1.3507  1.2761
21991SOL     OW67413   3.222   0.766   5.433  0.2778 -0.0164 -0.5142
21991SOL    HW167414   3.272   0.849   5.434  1.3877 -0.6482 -1.0202
21991SOL    HW267415   3.271   0.711   5.371  1.0546 -1.9578  1.7047
21992SOL     OW67416   1.493   3.929   6.146 -0.2835 -0.6356 -0.2205
21992SOL    HW167417   1.400   3.934   6.125 -0.5402  3.4858  0.9286
21992SOL    HW267418   1.534   3.993   6.088  1.4382 -0.6753  0.8684
21993SOL     OW67419   7.659   1.168  12.364 -0.5127 -0.2786  0.3544
21993SOL    HW167420   7.660   1.262  12.343  0.4678 -0.6745 -1.6942
21993SOL    HW267421   7.627   1.164  12.453  0.0429  2.0709  0.7474
21994SOL     OW67422   3.030   1.940   3.369 -0.2826 -0.3983  0.6275
21994SOL    HW167423   2.958   1.880   3.388  1.7896 -3.9659 -1.6848
21994SOL    HW267424   3.004   1.985   3.289 -0.6344 -0.4564  0.7096
21995SOL     OW67425   6.810   4.474   7.856  0.1827  0.1527 -0.3943
21995SOL    HW167426   6.833   4.388   7.890 -1.2186 -0.1777 -0.1903
21995SOL    HW267427   6.762   4.456   7.775  0.6629  0.7847 -0.8248
21996SOL     OW67428   6.262   0.556  12.192  0.0246 -0.2789  0.6633
21996SOL    HW167429   6.357   0.561  12.183  0.2649 -1.6690  2.0595
21996SOL    HW267430   6.231   0.528  12.106  0.6864  1.6668 -0.2655
21997SOL     OW67431   4.690   5.211   1.714 -0.1191 -0.1377  0.1007
21997SOL    HW167432   4.616   5.186   1.769 -1.3944  1.5200 -0.7801
21997SOL    HW267433   4.731   5.128   1.689 -0.9696 -1.0215  1.5470
21998SOL     OW67434   0.282   7.192   4.654  0.2366 -0.2540 -0.0730
21998SOL    HW167435   0.349   7.197   4.586 -0.0343 -0.4102 -0.3555
21998SOL    HW267436   0.295   7.271   4.706  0.4998 -0.1732 -0.2601
21999SOL     OW67437   0.520   4.884   5.476  0.9558  0.5261 -0.6717
21999SOL    HW167438   0.490   4.975   5.481 -0.1652  0.1017  1.3146
21999SOL    HW267439   0.591   4.878   5.540 -0.1680 -0.3898  0.5335
22000SOL     OW67440   3.252   0.442   8.612  0.1448  0.2936 -0.0895
22000SOL    HW167441   3.179   0.407   8.560  0.1101  0.6911 -0.3105
22000SOL    HW267442   3.304   0.365   8.635 -0.0778  0.0644 -0.3448
22001SOL     OW67443   7.597   1.142  10.336  0.4031 -0.0399 -0.1262
22001SOL    HW167444   7.576   1.228  10.373 -0.1015 -0.7852  1.3816
22001SOL    HW267445   7.534   1.130  10.265 -1.2357 -0.2488  1.3245
22002SOL     OW67446   0.674   4.032   9.024  0.3239  0.1080 -0.0898
22002SOL    HW167447   0.617   4.024   8.947  1.5413 -0.5562 -0.9517
22002SOL    HW267448   0.762   4.015   8.991  0.8137 -0.8320  1.5767
22003SOL     OW67449   5.630   4.393   8.370  0.2191  0.0291 -0.1681
22003SOL    HW167450   5.576   4.433   8.303 -2.2533 -2.4836  0.1331
22003SOL    HW267451   5.654   4.307   8.334  1.4502 -0.1292  0.9485
22004SOL     OW67452   6.294   1.616   2.873  0.0891 -0.3897 -0.1659
22004SOL    HW167453   6.310   1.705   2.842  1.1336 -0.3179  0.5273
22004SOL    HW267454   6.278   1.565   2.794 -0.7162  0.4510 -0.5525
22005SOL     OW67455   1.447   7.916   9.342  0.2209 -0.4675  0.2709
22005SOL    HW167456   1.449   7.825   9.368  0.1263 -0.2755  0.9639
22005SOL    HW267457   1.354   7.938   9.339  0.1899 -0.6701 -0.9161
22006SOL     OW67458   7.463   3.817   2.541  0.2699  0.1684  0.3402
22006SOL    HW167459   7.515   3.782   2.613 -0.3929 -1.4006  0.0877
22006SOL    HW267460   7.469   3.752   2.472  1.4152  1.9300 -1.3185
22007SOL     OW67461   4.955   0.104   9.605  0.0528  1.0594  0.4772
22007SOL    HW167462   4.980   0.128   9.516 -0.8793 -0.8879 -0.3708
22007SOL    HW267463   4.992   0.017   9.618 -3.2241 -0.5083  0.3738
22008SOL     OW67464   1.475   5.290   4.301  0.3685 -0.2444  0.2445
22008SOL    HW167465   1.435   5.232   4.366 -1.7718 -0.7426 -1.3780
22008SOL    HW267466   1.441   5.377   4.322  0.8561 -0.1517  0.6563
22009SOL     OW67467   5.645   7.886   5.293 -0.0256 -0.4460 -0.6201
22009SOL    HW167468   5.681   7.965   5.333 -0.6370  0.1573 -1.2372
22009SOL    HW267469   5.582   7.853   5.357 -0.5165  0.1464 -0.7920
22010SOL     OW67470   1.985   7.112   5.178  0.4778 -0.0788 -0.2792
22010SOL    HW167471   2.007   7.098   5.086 -1.8946 -0.6409 -0.8461
22010SOL    HW267472   1.892   7.137   5.177 -0.1384 -1.8318  2.0437
22011SOL     OW67473   1.839   3.301   9.091 -0.5096 -0.1352  0.4096
22011SOL    HW167474   1.782   3.333   9.021 -0.2407 -0.3795  0.0769
22011SOL    HW267475   1.891   3.378   9.117  0.7540 -0.4793 -0.9876
22012SOL     OW67476   1.161   6.092   6.588 -0.0444 -0.6695 -0.3060
22012SOL    HW167477   1.122   6.007   6.564 -1.3435 -0.0632 -0.4521
22012SOL    HW267478   1.124   6.111   6.674  0.6479 -0.4781 -0.0440
22013SOL     OW67479   1.281   0.310   7.117  0.2768  0.6803  0.1309
22013SOL    HW167480   1.254   0.360   7.194  2.3095  1.3722  0.4646
22013SOL    HW267481   1.323   0.232   7.153  1.1823  0.9764 -0.2361
22014SOL     OW67482   0.285   2.069   8.278  0.3858 -0.0080  0.1414
22014SOL    HW167483   0.288   2.158   8.315  0.8224  1.0638 -2.2939
22014SOL    HW267484   0.302   2.081   8.185 -0.4047 -2.5931 -0.4145
22015SOL     OW67485   1.458   3.120   2.761 -0.1615  0.6062  0.6023
22015SOL    HW167486   1.499   3.047   2.809 -1.5136  1.8744  3.9968
22015SOL    HW267487   1.445   3.188   2.828 -2.5285  2.4532 -1.5442
22016SOL     OW67488   1.554   1.117   8.941 -0.1661 -0.0020 -0.3685
22016SOL    HW167489   1.537   1.030   8.906  0.0251 -0.5883  0.9233
22016SOL    HW267490   1.643   1.112   8.977  0.0760  0.9094 -0.8106
22017SOL     OW67491   2.408   6.202  11.626 -0.2604  0.0945 -0.1879
22017SOL    HW167492   2.499   6.178  11.645 -0.1924  0.4630 -0.0361
22017SOL    HW267493   2.406   6.218  11.532  0.0526  0.9983 -0.0520
22018SOL     OW67494   5.514   6.442   0.846 -0.0382  0.0105  0.8027
22018SOL    HW167495   5.467   6.517   0.808 -1.3225 -0.6071  1.1254
22018SOL    HW267496   5.588   6.481   0.892  0.3168  0.9404 -0.4924
22019SOL     OW67497   2.979   4.230   8.531 -0.5389  0.1448  0.1762
22019SOL    HW167498   2.941   4.170   8.594 -0.6843 -0.2417 -0.2743
22019SOL    HW267499   3.022   4.173   8.467 -0.0838  0.5421  0.1240
22020SOL     OW67500   1.605   6.297   9.029 -0.1192  0.0411 -0.2122
22020SOL    HW167501   1.680   6.353   9.049  0.2004 -0.1250 -0.9259
22020SOL    HW267502   1.601   6.295   8.933 -0.8659 -0.1768 -0.1828
22021SOL     OW67503   5.585   0.331   1.650  0.3036  0.1503 -1.0045
22021SOL    HW167504   5.666   0.381   1.643  1.6885 -1.9602 -0.9142
22021SOL    HW267505   5.613   0.240   1.657 -2.0273 -0.5566  0.4539
22022SOL     OW67506   5.497   6.523   5.684 -0.3299 -0.2170 -0.4268
22022SOL    HW167507   5.570   6.484   5.732 -2.3749 -0.4559  2.7637
22022SOL    HW267508   5.453   6.449   5.643  0.2163 -0.2815 -0.9013
22023SOL     OW67509   6.741   0.969   9.053  0.3289 -0.5833  0.3399
22023SOL    HW167510   6.697   0.887   9.077  1.6002 -1.1985  0.6361
22023SOL    HW267511   6.788   0.996   9.132 -1.3031  1.3041  0.7556
22024SOL     OW67512   1.296   3.302   6.358  0.4398 -0.4091  0.4647
22024SOL    HW167513   1.285   3.393   6.384 -1.5789 -0.5364  0.2114
22024SOL    HW267514   1.245   3.252   6.422 -0.7655 -1.0985 -0.9692
22025SOL     OW67515   2.709   4.673   2.019  0.5905 -0.5352 -0.1587
22025SOL    HW167516   2.630   4.630   2.052  1.0261 -0.9298  0.3854
22025SOL    HW267517   2.701   4.764   2.048  0.0752 -0.4368 -0.5838
22026SOL     OW67518   4.081   6.716  12.220 -0.4808  0.0043  0.5007
22026SOL    HW167519   4.169   6.721  12.183  0.4858  1.2814  2.7158
22026SOL    HW267520   4.036   6.794  12.186 -0.7376 -0.5798 -0.5292
22027SOL     OW67521   7.536   0.911   3.543 -0.7390  0.4843 -0.6305
22027SOL    HW167522   7.579   0.992   3.515  0.6151 -0.5811 -1.7159
22027SOL    HW267523   7.457   0.906   3.490  0.7715 -0.4702 -2.9377
22028SOL     OW67524   4.319   7.431   0.757  0.5992 -0.5540 -0.3658
22028SOL    HW167525   4.320   7.527   0.748  1.8547 -0.5000  0.0698
22028SOL    HW267526   4.230   7.405   0.734  0.4060  0.6653 -1.0675
22029SOL     OW67527   7.162   6.194  12.366 -0.4389  0.2023 -0.0227
22029SOL    HW167528   7.140   6.160  12.453 -0.9586 -0.1266 -0.2749
22029SOL    HW267529   7.144   6.288  12.372 -1.1483  0.0738  0.0298
22030SOL     OW67530   2.845   1.291   5.622 -0.3746 -0.0594 -0.2487
22030SOL    HW167531   2.757   1.260   5.640 -0.2678 -0.8180 -0.9698
22030SOL    HW267532   2.890   1.215   5.584  0.8928  0.0047  1.0391
22031SOL     OW67533   6.479   1.762  10.028  0.0893  1.0148 -0.0345
22031SOL    HW167534   6.481   1.834   9.965 -1.1910  1.5127  0.4447
22031SOL    HW267535   6.515   1.799  10.108 -1.0145  1.2971  0.3523
22032SOL     OW67536   5.606   4.406   6.535 -0.1095  0.4607 -0.0997
22032SOL    HW167537   5.653   4.446   6.608  1.5604 -0.1260 -0.8204
22032SOL    HW267538   5.568   4.326   6.573  0.0004  0.6055  0.3241
22033SOL     OW67539   1.670   5.206   9.127 -0.0912  0.0444  0.5127
22033SOL    HW167540   1.634   5.294   9.132  0.6909  0.4233 -0.3775
22033SOL    HW267541   1.599   5.153   9.091 -0.7117  0.2000  1.4517
22034SOL     OW67542   4.122   5.357   3.493  0.8335 -0.1191 -0.0561
22034SOL    HW167543   4.137   5.434   3.438  0.9209  0.5788  0.9199
22034SOL    HW267544   4.187   5.364   3.563  0.7840 -1.0410  0.0904
22035SOL     OW67545   6.986   0.101  12.118 -0.6792  0.3086  0.3673
22035SOL    HW167546   6.910   0.092  12.175 -0.9633  1.6259  0.2169
22035SOL    HW267547   6.949   0.103  12.029 -0.5013  1.2822  0.3122
22036SOL     OW67548   5.473   6.260   7.670 -0.1291 -0.3776  0.5915
22036SOL    HW167549   5.527   6.183   7.652  0.2564  0.1068 -0.4039
22036SOL    HW267550   5.512   6.299   7.748  0.4808 -0.4706  0.3396
22037SOL     OW67551   7.572   1.679   8.137  0.6537  0.3404 -0.5715
22037SOL    HW167552   7.630   1.615   8.180  1.2236  0.4610 -1.1382
22037SOL    HW267553   7.618   1.701   8.056  0.1119  0.9312 -0.7208
22038SOL     OW67554   7.763   2.521  11.979  0.0017  0.0562 -0.0534
22038SOL    HW167555   7.788   2.469  12.055 -1.1797  1.5076  1.3728
22038SOL    HW267556   7.825   2.594  11.978 -0.9851  0.9235  0.5110
22039SOL     OW67557   0.479   3.310   1.417  0.2980 -0.2987  0.0585
22039SOL    HW167558   0.400   3.273   1.455 -0.0911 -0.8524 -1.2432
22039SOL    HW267559   0.499   3.386   1.472 -2.2409  1.0158 -0.6849
22040SOL     OW67560   1.321   6.266   1.585  0.1416 -0.0366  0.2900
22040SOL    HW167561   1.258   6.285   1.655 -0.0308 -0.2545  0.1952
22040SOL    HW267562   1.267   6.244   1.510  0.2768  1.7225 -0.3808
22041SOL     OW67563   2.148   4.482   7.813 -0.3185  0.2340 -0.0005
22041SOL    HW167564   2.054   4.478   7.798 -0.6402  2.3147  1.2122
22041SOL    HW267565   2.176   4.565   7.774  1.0773 -0.4238 -0.4894
22042SOL     OW67566   6.148   3.647  10.345 -0.3896  0.1934 -0.4066
22042SOL    HW167567   6.229   3.667  10.392 -0.7559  2.4222 -0.6186
22042SOL    HW267568   6.139   3.718  10.281 -1.0771 -1.5403 -2.3328
22043SOL     OW67569   7.372   1.661   2.580  0.3639  0.6786  0.3433
22043SOL    HW167570   7.323   1.671   2.662 -0.0947 -0.8715  0.2858
22043SOL    HW267571   7.344   1.576   2.545  1.6543  0.6398 -0.6811
22044SOL     OW67572   1.290   2.087  10.028 -0.2067  0.2915 -0.5336
22044SOL    HW167573   1.259   2.016  10.084  2.3886  0.3385  1.0953
22044SOL    HW267574   1.215   2.146  10.021 -1.0226 -0.3698  1.8345
22045SOL     OW67575   3.272   7.078   4.782  0.1068 -0.3451 -0.0445
22045SOL    HW167576   3.335   7.133   4.736  1.2423  0.7856  2.6484
22045SOL    HW267577   3.187   7.113   4.757  0.6295 -0.2182 -1.7381
22046SOL     OW67578   2.013   3.173  10.882  0.0934 -0.3052 -0.6741
22046SOL    HW167579   2.037   3.183  10.974 -0.5831 -0.7208 -0.4375
22046SOL    HW267580   2.093   3.191  10.833  0.7778 -1.2946  0.0512
22047SOL     OW67581   6.042   3.665   8.760 -0.0058 -0.2771 -0.1158
22047SOL    HW167582   6.011   3.749   8.794 -0.4759 -0.8678  0.9787
22047SOL    HW267583   6.054   3.611   8.839 -1.6321 -1.8838 -0.8997
22048SOL     OW67584   5.272   0.565  12.125 -0.0985  0.0022 -0.1999
22048SOL    HW167585   5.238   0.520  12.202  0.4330  1.1744  0.7493
22048SOL    HW267586   5.342   0.621  12.158 -1.7509  2.7559 -0.9828
22049SOL     OW67587   0.132   0.413  12.092 -0.0588 -0.1018 -0.2047
22049SOL    HW167588   0.083   0.465  12.028 -0.0111  0.7428  0.4341
22049SOL    HW267589   0.199   0.368  12.040  0.6224  1.3505 -0.6384
22050SOL     OW67590   5.336   4.694   2.586  0.1929 -0.1430 -0.1037
22050SOL    HW167591   5.402   4.635   2.623 -1.3971 -0.2885  2.7686
22050SOL    HW267592   5.293   4.733   2.662 -0.6781  2.6583 -1.9040
22051SOL     OW67593   1.862   4.836  10.982 -0.1156 -0.1687 -0.0612
22051SOL    HW167594   1.842   4.929  10.993  1.2578  0.1009  0.3262
22051SOL    HW267595   1.938   4.835  10.923 -0.9776 -1.1205 -1.1938
22052SOL     OW67596   7.814   4.989   1.135  0.2958  0.2386  0.0070
22052SOL    HW167597   7.880   4.987   1.066 -0.9354 -0.8140 -1.2100
22052SOL    HW267598   7.832   4.910   1.187  0.9789  0.8208  0.6741
22053SOL     OW67599   1.319   3.524   3.850  0.3042  0.5353  0.4054
22053SOL    HW167600   1.363   3.540   3.933 -1.8903 -1.5162  2.0870
22053SOL    HW267601   1.342   3.434   3.827 -0.8605  0.3311 -0.0327
22054SOL     OW67602   6.460   4.487   7.199  0.3113  0.0030 -0.0829
22054SOL    HW167603   6.544   4.532   7.207  1.0941 -1.3536 -0.2617
22054SOL    HW267604   6.446   4.445   7.284  0.0685 -0.1894 -0.2134
22055SOL     OW67605   6.420   4.401  10.180  0.4904 -0.0729  0.1890
22055SOL    HW167606   6.376   4.360  10.106 -0.0595  0.0755  0.4280
22055SOL    HW267607   6.358   4.468  10.210 -0.8401 -2.3698  2.9385
22056SOL     OW67608   2.983   0.493   3.959 -0.6398  0.1613  0.3286
22056SOL    HW167609   2.975   0.469   4.051  0.4279  2.2287  1.0292
22056SOL    HW267610   2.972   0.588   3.958  2.0641  0.5720 -1.2473
22057SOL     OW67611   5.909   4.566   4.935  0.1727  0.3542 -0.2386
22057SOL    HW167612   5.857   4.561   5.015  0.2764 -1.9462 -0.2441
22057SOL    HW267613   6.000   4.567   4.966  0.2693 -2.0519 -0.2780
22058SOL     OW67614   2.381   3.925   2.455  0.3085 -0.0591  0.0521
22058SOL    HW167615   2.361   3.834   2.477 -0.1599 -0.1469 -0.6834
22058SOL    HW267616   2.353   3.975   2.532 -0.4921 -0.4302  0.0147
22059SOL     OW67617   7.901   0.075   6.855 -0.3703 -0.1304  0.1517
22059SOL    HW167618   7.813   0.097   6.887 -0.5501 -0.3935 -0.1659
22059SOL    HW267619   7.893  -0.012   6.817 -0.3210  0.4328 -1.2343
22060SOL     OW67620   5.481   2.655  12.036  0.2362 -0.0052 -0.3085
22060SOL    HW167621   5.565   2.660  12.082  0.4003  0.4494 -0.6531
22060SOL    HW267622   5.424   2.713  12.086  0.5409  0.8461 -0.9393
22061SOL     OW67623   1.147   3.816   7.297  0.1020  0.3428  0.4093
22061SOL    HW167624   1.132   3.777   7.211 -0.5911 -0.1932  0.7705
22061SOL    HW267625   1.175   3.743   7.352  1.1256  0.7867  0.5100
22062SOL     OW67626   2.023   1.839   1.296  0.1665  1.0236  0.2586
22062SOL    HW167627   2.052   1.883   1.216  0.4300 -0.1808 -0.3319
22062SOL    HW267628   2.093   1.776   1.316 -0.4421  0.4890  0.7676
22063SOL     OW67629   2.453   3.662   8.410 -0.2679  0.2060 -0.0275
22063SOL    HW167630   2.452   3.756   8.432  0.8835  0.0474  0.8289
22063SOL    HW267631   2.447   3.659   8.315 -0.8120  1.1252 -0.0362
22064SOL     OW67632   3.491   1.640   4.593  0.3595 -0.1861 -0.4817
22064SOL    HW167633   3.560   1.579   4.619 -0.2207 -0.9782 -0.7604
22064SOL    HW267634   3.490   1.635   4.497 -1.4737 -1.7992 -0.4375
22065SOL     OW67635   6.402   0.475  10.183  0.4216  0.1134 -0.3303
22065SOL    HW167636   6.404   0.449  10.091  0.5229  1.8963 -0.8724
22065SOL    HW267637   6.475   0.537  10.192 -0.1384  0.6422  0.7382
22066SOL     OW67638   5.778   3.861   5.066  0.0439 -0.0792  0.0153
22066SOL    HW167639   5.823   3.908   4.996  1.8295 -0.9266  0.5490
22066SOL    HW267640   5.833   3.873   5.143 -2.2722  1.5124  1.5736
22067SOL     OW67641   5.240   3.576   3.896 -0.3079 -0.1801 -0.4374
22067SOL    HW167642   5.189   3.502   3.928 -0.5777 -0.0363 -0.5253
22067SOL    HW267643   5.331   3.548   3.902 -0.3189  0.0204  0.9120
22068SOL     OW67644   3.923   1.175   9.641 -0.1812 -0.0933  0.3362
22068SOL    HW167645   4.012   1.207   9.657  0.0925  0.5129 -2.0184
22068SOL    HW267646   3.926   1.082   9.666  1.1644 -0.1097  0.1738
22069SOL     OW67647   1.573   7.681  11.623 -0.5512 -0.2530 -0.1631
22069SOL    HW167648   1.483   7.680  11.590  0.1124  0.8546 -2.1652
22069SOL    HW267649   1.564   7.700  11.716 -2.4060 -0.6078 -0.2310
22070SOL     OW67650   7.602   0.408  10.146 -0.0398  0.3234 -0.1280
22070SOL    HW167651   7.507   0.416  10.142 -0.0802 -0.2404 -0.2701
22070SOL    HW267652   7.627   0.455  10.227 -0.5667 -0.7628  0.6819
22071SOL     OW67653   0.286   0.986  10.841 -0.3311 -0.1226  0.4204
22071SOL    HW167654   0.245   0.989  10.754  0.2402  0.1839  0.1589
22071SOL    HW267655   0.215   1.010  10.901 -0.0966  2.2734 -0.1877
22072SOL     OW67656   5.106   1.496   5.154  0.2976 -0.2282 -0.0044
22072SOL    HW167657   5.097   1.411   5.111  1.8430 -1.3368  1.7205
22072SOL    HW267658   5.148   1.551   5.088  0.9124 -1.3264 -0.5743
22073SOL     OW67659   6.511   0.651   2.301  0.3750 -0.6472  0.0835
22073SOL    HW167660   6.532   0.603   2.381  1.7771 -0.3713 -0.1072
22073SOL    HW267661   6.416   0.665   2.306  0.4878 -0.3941  1.8180
22074SOL     OW67662   6.584   7.746   6.887 -0.7121  0.0329 -0.1241
22074SOL    HW167663   6.528   7.784   6.820  0.4879  1.6022 -0.2817
22074SOL    HW267664   6.523   7.715   6.955 -1.8283  0.1124 -1.0606
22075SOL     OW67665   3.990   5.735   4.888  0.0234 -0.0785 -0.3853
22075SOL    HW167666   4.041   5.655   4.900  0.2038 -0.2896 -2.3240
22075SOL    HW267667   3.900   5.705   4.877 -0.2331  0.1541  0.8973
22076SOL     OW67668   7.600   0.003   8.688  0.7605 -0.2855  0.0158
22076SOL    HW167669   7.658  -0.073   8.692  0.1701 -0.7206  0.3639
22076SOL    HW267670   7.514  -0.030   8.714  0.4511  0.4560 -0.0311
22077SOL     OW67671   5.757   0.973   3.373 -0.7742 -0.1993  0.3085
22077SOL    HW167672   5.703   0.992   3.449 -0.8290  0.4663  0.1151
22077SOL    HW267673   5.827   1.039   3.376 -0.7728 -0.1691 -0.2115
22078SOL     OW67674   2.923   6.712  11.019 -0.1486 -0.3048  0.5243
22078SOL    HW167675   2.893   6.773  10.952  2.7344  2.0844  1.1899
22078SOL    HW267676   2.979   6.650  10.972  0.5270  0.3594  0.4274
22079SOL     OW67677   2.857   7.245   5.423 -0.9566  0.2193  0.4867
22079SOL    HW167678   2.818   7.326   5.453 -0.4537  0.7828 -0.3480
22079SOL    HW267679   2.951   7.259   5.433 -0.8370 -0.0080 -0.2741
22080SOL     OW67680   0.245   5.904  10.628  0.3211  0.5020 -0.1984
22080SOL    HW167681   0.217   5.881  10.716 -0.2373  0.4978 -0.3729
22080SOL    HW267682   0.165   5.900  10.575  0.7847 -0.3239 -0.8773
22081SOL     OW67683   1.074   5.623   0.943  0.4678  0.0631 -0.5697
22081SOL    HW167684   1.046   5.534   0.966  0.2869  0.0736 -0.7474
22081SOL    HW267685   0.993   5.670   0.925  0.6341 -0.3192 -2.6171
22082SOL     OW67686   3.275   3.724  11.024  0.5653 -0.2691  0.0569
22082SOL    HW167687   3.245   3.634  11.030  1.1320 -0.4645  0.0463
22082SOL    HW267688   3.247   3.754  10.938 -2.3027  0.5802  1.1821
22083SOL     OW67689   3.369   6.227   3.058 -0.3527 -0.1390 -0.1637
22083SOL    HW167690   3.423   6.294   3.017  0.9564 -0.6956  0.5875
22083SOL    HW267691   3.342   6.170   2.986 -1.1454  0.9302 -0.7486
22084SOL     OW67692   7.501   0.942   6.993 -0.1844 -0.1344 -0.4320
22084SOL    HW167693   7.435   0.889   7.037  0.9898 -0.8998  0.4675
22084SOL    HW267694   7.461   1.029   6.985 -1.3800 -0.6499 -0.1336
22085SOL     OW67695   4.669   7.756   2.538 -0.2894  0.3285  0.1498
22085SOL    HW167696   4.722   7.830   2.566 -0.9395  0.3143  1.5115
22085SOL    HW267697   4.732   7.692   2.504  0.4798  0.6941  0.8429
22086SOL     OW67698   5.253   2.012   2.900 -0.3772  0.1520 -0.1860
22086SOL    HW167699   5.186   2.051   2.956 -1.0517 -1.0571 -0.1102
22086SOL    HW267700   5.225   1.921   2.889  1.2423 -0.3774 -0.1769
22087SOL     OW67701   0.175   5.053   7.211  0.3213 -0.1757 -0.1847
22087SOL    HW167702   0.135   5.009   7.286  1.9572 -0.5438  0.5202
22087SOL    HW267703   0.264   5.073   7.240  0.1415  2.1898 -1.0655
22088SOL     OW67704   0.536   7.232   0.184 -0.4885  0.7007  0.5462
22088SOL    HW167705   0.462   7.291   0.197 -0.9084 -0.1165  2.2131
22088SOL    HW267706   0.517   7.186   0.102 -1.6874  0.7115  0.8071
22089SOL     OW67707   6.117   3.175  11.644  0.1411 -0.7057  0.4762
22089SOL    HW167708   6.157   3.152  11.561  1.2036 -2.9384  1.5200
22089SOL    HW267709   6.039   3.224  11.621  0.5337 -1.0679 -1.8039
22090SOL     OW67710   5.328   4.777   4.779 -0.0598 -0.0364 -0.5459
22090SOL    HW167711   5.326   4.830   4.858  0.9066  0.5642 -0.8933
22090SOL    HW267712   5.415   4.794   4.742 -1.2339  1.4316 -2.8867
22091SOL     OW67713   1.232   5.489   3.790  0.3223  0.1336  0.5291
22091SOL    HW167714   1.281   5.541   3.854  1.2634  2.4978 -1.9217
22091SOL    HW267715   1.154   5.540   3.771  0.8424  0.3202 -1.3214
22092SOL     OW67716   5.974   6.724   6.967  0.4443 -0.0024 -0.3625
22092SOL    HW167717   6.029   6.777   6.909  1.8730 -1.2779 -0.2340
22092SOL    HW267718   5.990   6.634   6.940  2.2214 -0.7922  2.7453
22093SOL     OW67719   3.051   6.675   0.105 -0.2939  1.0062  0.3839
22093SOL    HW167720   3.006   6.733   0.166 -0.9885  1.9217 -0.9730
22093SOL    HW267721   2.982   6.625   0.063  0.1717  0.4921  0.2081
22094SOL     OW67722   4.160   1.157   3.558  0.2710  0.3213  0.1624
22094SOL    HW167723   4.133   1.145   3.466  0.3037 -1.4189  0.3517
22094SOL    HW267724   4.254   1.174   3.553  0.0092  1.7827 -0.2043
22095SOL     OW67725   4.058   7.235   7.826  0.3137 -0.5090  0.1829
22095SOL    HW167726   4.073   7.165   7.889  0.3699 -2.1158 -1.5169
22095SOL    HW267727   4.074   7.194   7.741  1.3551  1.8609 -0.8396
22096SOL     OW67728   6.581   2.815   2.026  0.2926 -0.1690  0.0526
22096SOL    HW167729   6.588   2.872   1.950 -4.4197  2.3582  1.1377
22096SOL    HW267730   6.571   2.727   1.989  1.4107  0.5145 -2.0288
22097SOL     OW67731   1.346   2.705   4.344  0.6116 -0.2054 -0.1787
22097SOL    HW167732   1.355   2.798   4.364 -1.2917 -0.1985  0.8010
22097SOL    HW267733   1.335   2.703   4.249 -1.1831  0.7776 -0.0409
22098SOL     OW67734   1.237   1.513   4.867 -0.2121 -0.2610  0.4236
22098SOL    HW167735   1.302   1.558   4.920  0.4794  0.5474 -1.0528
22098SOL    HW267736   1.155   1.525   4.914 -0.1337  2.8422 -0.0151
22099SOL     OW67737   5.329   5.186  11.446 -0.1666 -0.7112  0.0664
22099SOL    HW167738   5.297   5.227  11.527 -1.1780 -0.8760 -0.2326
22099SOL    HW267739   5.276   5.107  11.438 -1.1017  0.0324 -1.5087
22100SOL     OW67740   2.352   5.599   4.464 -0.1839  0.2901  0.1230
22100SOL    HW167741   2.360   5.679   4.515 -0.1188  0.1121  0.3894
22100SOL    HW267742   2.360   5.628   4.373  2.8120  0.2291  0.2797
22101SOL     OW67743   7.894   0.706   7.459  0.7784 -0.1647 -0.4194
22101SOL    HW167744   7.900   0.648   7.382  0.7674  1.3711 -1.6288
22101SOL    HW267745   7.976   0.756   7.458  0.2677  0.6991 -0.1512
22102SOL     OW67746   3.194   4.074   1.132 -0.3439 -0.3890  0.0179
22102SOL    HW167747   3.143   4.040   1.058 -0.7647  0.3827 -0.0657
22102SOL    HW267748   3.139   4.143   1.169  1.6218  2.3083 -1.6612
22103SOL     OW67749   5.126   3.964   3.413  0.2404  0.3979 -0.2783
22103SOL    HW167750   5.159   3.874   3.411 -0.3489  0.1799 -0.5257
22103SOL    HW267751   5.032   3.955   3.399 -0.0745  0.9396  1.2924
22104SOL     OW67752   2.852   6.264   8.135  0.3187 -0.3183 -0.4011
22104SOL    HW167753   2.819   6.326   8.070  0.5747 -1.9918 -2.2070
22104SOL    HW267754   2.916   6.314   8.186  0.7167  0.8339 -1.9737
22105SOL     OW67755   3.610   3.815   6.683 -0.0417 -0.0868 -0.0916
22105SOL    HW167756   3.637   3.723   6.684  0.5705  0.0735  1.4341
22105SOL    HW267757   3.518   3.813   6.710 -0.3221 -0.3145 -1.0378
22106SOL     OW67758   4.993   1.200   2.921  0.3771  0.4605  0.0704
22106SOL    HW167759   4.906   1.170   2.947  0.6662  1.0329  1.8257
22106SOL    HW267760   5.052   1.132   2.955  0.6695  0.4434 -0.4674
22107SOL     OW67761   2.064   4.935   1.382 -0.3796 -0.2001  0.4568
22107SOL    HW167762   1.981   4.972   1.413 -0.8476 -0.9101  0.1060
22107SOL    HW267763   2.058   4.940   1.287 -1.0106 -2.2317  0.3290
22108SOL     OW67764   3.904   0.603   3.285 -0.3228 -0.5854 -0.9440
22108SOL    HW167765   3.928   0.524   3.333  0.8859  0.5791  0.4651
22108SOL    HW267766   3.899   0.574   3.193 -0.0866 -2.3084 -0.4534
22109SOL     OW67767   5.583   6.875   2.613  0.3605 -0.1084 -0.2343
22109SOL    HW167768   5.573   6.967   2.636 -2.8191 -0.9191  2.3328
22109SOL    HW267769   5.498   6.849   2.578  0.7921 -2.2920  0.1670
22110SOL     OW67770   5.483   0.387   4.255  0.3648 -0.2270 -0.5604
22110SOL    HW167771   5.395   0.381   4.293 -0.1165  1.4193 -1.3167
22110SOL    HW267772   5.540   0.347   4.320 -0.9028 -1.1190  0.0563
22111SOL     OW67773   7.254   3.404   6.246 -0.5142  0.3115 -0.2850
22111SOL    HW167774   7.326   3.387   6.185 -0.3049  2.1810 -0.6379
22111SOL    HW267775   7.260   3.335   6.311  0.5214 -0.5682 -1.2758
22112SOL     OW67776   4.970   7.242   0.249  0.3024  0.1518  0.1214
22112SOL    HW167777   4.938   7.161   0.209 -2.6764  1.6808 -0.9588
22112SOL    HW267778   4.992   7.218   0.339  0.5358 -2.0270 -0.4704
22113SOL     OW67779   4.613   4.660  11.705 -0.3234 -0.4995  0.5071
22113SOL    HW167780   4.637   4.655  11.798  0.7263 -0.3502  0.2574
22113SOL    HW267781   4.550   4.732  11.701  0.5470  0.3204  0.9351
22114SOL     OW67782   1.966   1.916   8.750 -0.1026  0.4407 -0.2956
22114SOL    HW167783   1.879   1.878   8.744 -0.1618  0.5632 -0.2263
22114SOL    HW267784   2.026   1.841   8.753 -0.3000  0.3027  1.2719
22115SOL     OW67785   1.458   1.144  12.165 -0.1801  0.4045  0.5039
22115SOL    HW167786   1.458   1.232  12.127  0.3653  1.5513  2.9473
22115SOL    HW267787   1.365   1.125  12.181 -0.2364  1.2025  1.2671
22116SOL     OW67788   6.211   6.655   7.722 -0.0565  0.5604  0.5113
22116SOL    HW167789   6.230   6.591   7.653 -0.3981  0.2616  0.6935
22116SOL    HW267790   6.223   6.740   7.680 -0.0063  0.3772  0.1543
22117SOL     OW67791   4.139   0.746   7.563 -0.0577 -0.4675 -0.1419
22117SOL    HW167792   4.056   0.703   7.587  1.1589 -1.7924  2.0500
22117SOL    HW267793   4.179   0.687   7.499 -0.2065 -0.4984 -0.2077
22118SOL     OW67794   0.812   2.995   5.434 -0.1162  0.3641 -0.0533
22118SOL    HW167795   0.785   2.936   5.364 -0.6081  0.7115 -0.1649
22118SOL    HW267796   0.730   3.017   5.480  0.4104 -1.4126  1.8861
22119SOL     OW67797   5.012   2.787   6.679  0.5822  0.2031 -0.1556
22119SOL    HW167798   5.038   2.878   6.662  1.9477 -0.1528 -0.1119
22119SOL    HW267799   5.053   2.766   6.764  1.2384 -0.7876 -0.6954
22120SOL     OW67800   7.180   6.562   2.533 -0.1445 -0.1813  0.0861
22120SOL    HW167801   7.128   6.487   2.505  0.8904 -1.6583  1.8999
22120SOL    HW267802   7.267   6.547   2.495 -0.1719  0.6316 -0.3334
22121SOL     OW67803   5.230   6.074   7.549 -0.1313 -0.2485  0.3586
22121SOL    HW167804   5.277   6.140   7.499 -0.4775  0.1216  0.5188
22121SOL    HW267805   5.154   6.052   7.495 -1.5571  1.5469  1.5433
22122SOL     OW67806   7.806   5.281   9.002 -0.6121  0.1470  0.1671
22122SOL    HW167807   7.761   5.212   8.953 -0.0518  1.1022 -1.7827
22122SOL    HW267808   7.878   5.236   9.047 -0.2094 -0.5513 -1.1401
22123SOL     OW67809   0.758   3.777   2.038 -0.1382  0.2714 -0.4517
22123SOL    HW167810   0.795   3.852   2.085  0.8757 -0.6349  0.2590
22123SOL    HW267811   0.673   3.808   2.006 -0.4550  1.2099  1.1917
22124SOL     OW67812   1.471   3.326   0.377 -0.8250  0.2414  0.8116
22124SOL    HW167813   1.462   3.238   0.414  0.9318 -0.2396  0.2119
22124SOL    HW267814   1.471   3.384   0.453  0.5815 -0.5312  1.4399
22125SOL     OW67815   5.508   1.717   1.791 -0.0507 -0.4188 -0.0410
22125SOL    HW167816   5.599   1.719   1.819 -0.3984 -0.8634  1.1906
22125SOL    HW267817   5.466   1.652   1.849 -1.1991 -0.0332 -0.4025
22126SOL     OW67818   1.309   4.800   5.066  0.1425  0.0974  0.0927
22126SOL    HW167819   1.367   4.731   5.034 -0.9528 -0.4242 -0.8328
22126SOL    HW267820   1.223   4.760   5.070 -0.3157  1.0950  0.6291
22127SOL     OW67821   3.099   5.171   7.377  0.4265 -0.5008  0.3556
22127SOL    HW167822   3.114   5.102   7.442  0.7429 -0.1110  0.7019
22127SOL    HW267823   3.085   5.124   7.295 -1.9187 -1.0879  1.0180
22128SOL     OW67824   6.353   4.361   9.403  0.5872 -0.1186  0.2174
22128SOL    HW167825   6.295   4.335   9.474  0.1775  1.3014  0.4449
22128SOL    HW267826   6.423   4.411   9.446  1.9879 -1.7724 -0.0604
22129SOL     OW67827   7.221   4.333   5.194  0.0175 -0.0196 -0.1059
22129SOL    HW167828   7.186   4.248   5.168 -2.1639  0.6425  0.4329
22129SOL    HW267829   7.143   4.386   5.214  1.3446  1.7324  0.7232
22130SOL     OW67830   4.100   1.854  10.630 -0.1049  0.2434 -0.2060
22130SOL    HW167831   4.086   1.933  10.682 -0.3544 -1.0981  1.9169
22130SOL    HW267832   4.037   1.861  10.558 -1.9316  0.8279  1.3548
22131SOL     OW67833   1.872   0.115  11.583  0.3872  0.4762 -0.4777
22131SOL    HW167834   1.943   0.145  11.639  1.4829  0.8455 -1.9819
22131SOL    HW267835   1.838   0.037  11.626  2.5775 -0.4768 -0.3539
22132SOL     OW67836   4.410   5.910  12.017  0.1126  0.7055 -0.1256
22132SOL    HW167837   4.391   5.859  11.938 -1.2965  0.1569  0.5328
22132SOL    HW267838   4.505   5.926  12.012  0.0445  0.8061 -1.9696
22133SOL     OW67839   0.694   4.710   8.053 -0.1148 -0.1584  0.0890
22133SOL    HW167840   0.628   4.779   8.049 -0.6760 -0.6843  0.1374
22133SOL    HW267841   0.678   4.656   7.976 -0.3024 -0.7783  0.5474
22134SOL     OW67842   7.129   2.016   9.488 -0.3970 -0.2782  0.4108
22134SOL    HW167843   7.078   1.989   9.564  0.2648  1.2805  1.4428
22134SOL    HW267844   7.094   2.102   9.464  0.0338 -0.3333 -0.4844
22135SOL     OW67845   7.136   5.443   2.149  0.4222  0.5056 -0.3027
22135SOL    HW167846   7.227   5.465   2.167  0.4610  1.7444 -1.7976
22135SOL    HW267847   7.126   5.454   2.054 -1.7839  2.5380  0.0547
22136SOL     OW67848   3.791   2.095   3.922  0.4750 -0.2215 -0.0277
22136SOL    HW167849   3.750   2.128   3.843 -0.8759  0.4351  0.8994
22136SOL    HW267850   3.864   2.154   3.939  0.1742  0.2178 -0.2596
22137SOL     OW67851   6.936   1.274   5.730  0.2032 -1.0196 -0.0997
22137SOL    HW167852   6.884   1.346   5.693 -2.0194 -2.1576  0.6224
22137SOL    HW267853   7.021   1.281   5.685 -0.8320  0.3872 -2.0378
22138SOL     OW67854   1.378   6.232   9.867  0.0908 -0.4350 -0.4992
22138SOL    HW167855   1.308   6.241   9.932  0.6193  2.3410 -0.1894
22138SOL    HW267856   1.441   6.173   9.908 -0.9243 -1.0539  0.2338
22139SOL     OW67857   3.805   1.408  11.293 -1.0250 -0.3709  0.0904
22139SOL    HW167858   3.761   1.323  11.293 -2.1852  0.1979  0.0797
22139SOL    HW267859   3.833   1.420  11.202 -1.2883 -0.5375 -0.0154
22140SOL     OW67860   3.402   2.012  11.500  0.0251  0.1443 -0.4202
22140SOL    HW167861   3.386   1.926  11.539 -0.8107  1.5284  2.5467
22140SOL    HW267862   3.396   1.997  11.406  0.3850 -3.1104 -0.0235
22141SOL     OW67863   3.338   7.669   6.318 -0.0515 -0.1937 -0.1332
22141SOL    HW167864   3.338   7.579   6.350  0.3371 -0.8613 -1.9058
22141SOL    HW267865   3.293   7.665   6.234  0.8225  1.1062 -0.6971
22142SOL     OW67866   0.843   1.051   2.376 -0.4381 -0.3851  0.4495
22142SOL    HW167867   0.930   1.044   2.415 -0.3712 -1.4573  0.1407
22142SOL    HW267868   0.819   1.143   2.387  1.5115  0.3860 -1.1155
22143SOL     OW67869   3.764   2.485   8.111  0.1483  0.0404 -0.0515
22143SOL    HW167870   3.856   2.469   8.090  0.0519 -0.1946 -0.3063
22143SOL    HW267871   3.715   2.425   8.053 -0.0976 -1.1731  1.3441
22144SOL     OW67872   0.933   2.675   3.200  0.0345  0.2835 -0.2017
22144SOL    HW167873   0.840   2.679   3.220 -0.3269  2.3970 -1.8517
22144SOL    HW267874   0.970   2.753   3.241  0.6068  0.7178 -1.4800
22145SOL     OW67875   6.604   2.503  10.276  0.2046  0.6121 -0.1581
22145SOL    HW167876   6.525   2.453  10.295  0.2438  0.4687 -0.3703
22145SOL    HW267877   6.663   2.441  10.234  1.7277 -0.1796  2.8730
22146SOL     OW67878   4.124   2.589   7.627 -0.1184 -0.2097 -0.4957
22146SOL    HW167879   4.145   2.532   7.700  0.7410 -0.8039 -1.1800
22146SOL    HW267880   4.160   2.544   7.550 -2.8899 -0.7290 -1.6254
22147SOL     OW67881   5.748   3.268   1.779  0.2203 -0.2591 -0.5178
22147SOL    HW167882   5.659   3.232   1.782 -0.4227  1.3137  0.4976
22147SOL    HW267883   5.788   3.227   1.702 -2.1555  0.6672 -2.3982
22148SOL     OW67884   3.575   7.586   5.030  0.2509 -0.0242 -0.1420
22148SOL    HW167885   3.558   7.666   4.981 -0.7570 -0.2045 -0.1225
22148SOL    HW267886   3.670   7.580   5.036  0.3625  0.5064 -1.2252
22149SOL     OW67887   5.926   5.440   2.153  0.1029  0.0739 -0.0801
22149SOL    HW167888   5.999   5.451   2.213 -0.6717  1.3426  0.6846
22149SOL    HW267889   5.850   5.475   2.200 -1.1959 -1.9337 -0.5079
22150SOL     OW67890   3.865   5.507   9.204 -0.8195 -0.2573  0.2567
22150SOL    HW167891   3.912   5.432   9.240 -1.1087 -0.4346  0.2651
22150SOL    HW267892   3.887   5.580   9.262  0.8665  0.0732 -0.7305
22151SOL     OW67893   1.368   3.594   8.405  0.0449 -0.2550 -0.3179
22151SOL    HW167894   1.433   3.641   8.353  0.6220 -0.4108  0.2517
22151SOL    HW267895   1.391   3.613   8.496 -1.1675  0.3053 -0.1115
22152SOL     OW67896   6.348   2.759   0.689 -0.2513  0.2141  0.4762
22152SOL    HW167897   6.305   2.798   0.765 -1.0506 -1.6301  1.0131
22152SOL    HW267898   6.379   2.674   0.719 -0.7259 -0.6300 -1.2857
22153SOL     OW67899   4.542   0.597   8.462  0.4185 -0.1559 -0.0044
22153SOL    HW167900   4.560   0.515   8.417  0.0320 -1.9872  2.8634
22153SOL    HW267901   4.472   0.574   8.524  0.7427  2.1870  1.3251
22154SOL     OW67902   3.535   0.065   6.708 -0.9131 -0.5078  0.3188
22154SOL    HW167903   3.613   0.015   6.686 -1.2427  0.2556 -3.1903
22154SOL    HW267904   3.471  -0.001   6.736 -0.2750 -1.6647 -0.8592
22155SOL     OW67905   2.149   7.067   0.012 -0.2312 -0.7020  0.1772
22155SOL    HW167906   2.161   7.136   0.077 -0.2433 -1.5545  1.1055
22155SOL    HW267907   2.059   7.079  -0.018  0.2177  0.5956 -0.7898
22156SOL     OW67908   0.984   7.621  12.145  0.4289  0.1360 -0.6028
22156SOL    HW167909   1.035   7.673  12.208  0.8912 -1.4547  0.4003
22156SOL    HW267910   1.050   7.569  12.099 -0.0714 -0.0395 -1.1240
22157SOL     OW67911   6.629   7.790  12.104 -0.0273  0.4338  0.0575
22157SOL    HW167912   6.618   7.695  12.110 -0.9669  0.3332 -2.2433
22157SOL    HW267913   6.580   7.824  12.179 -0.6138 -0.8630  0.2965
22158SOL     OW67914   3.932   6.151   7.708  0.3745 -0.0975 -0.6186
22158SOL    HW167915   3.853   6.193   7.741 -0.0164 -0.6925 -0.7698
22158SOL    HW267916   3.900   6.083   7.649  1.0177 -0.0377 -1.0504
22159SOL     OW67917   3.801   5.801  10.843 -0.0748  0.1471  0.1439
22159SOL    HW167918   3.893   5.812  10.866 -0.2659 -0.4816  1.2602
22159SOL    HW267919   3.801   5.794  10.747  0.8950  1.3791  0.0288
22160SOL     OW67920   2.799   5.843   3.410 -0.2448  0.5287  0.1720
22160SOL    HW167921   2.754   5.821   3.492  1.3696  0.2971  1.0285
22160SOL    HW267922   2.840   5.927   3.427 -0.5227  0.8405 -0.6680
22161SOL     OW67923   4.811   6.258  10.772 -0.0245  0.4615 -0.1474
22161SOL    HW167924   4.839   6.349  10.762 -0.5773  0.8324  1.3641
22161SOL    HW267925   4.893   6.208  10.773  0.2285  0.7627 -2.3138
22162SOL     OW67926   1.605   4.114   6.688 -0.0796 -0.2407  0.1115
22162SOL    HW167927   1.651   4.077   6.613 -1.4964 -0.7591 -0.5506
22162SOL    HW267928   1.651   4.080   6.764 -0.6768 -2.5828 -0.4761
22163SOL     OW67929   5.050   4.560   5.765 -0.2023  0.1818  0.4203
22163SOL    HW167930   5.097   4.625   5.714 -0.6861  0.3744  0.2080
22163SOL    HW267931   5.050   4.482   5.711  0.9342 -0.2013  0.9485
22164SOL     OW67932   6.651   4.631   3.661 -0.0090 -0.0499  0.2113
22164SOL    HW167933   6.699   4.551   3.680  0.1010  0.1805  0.9537
22164SOL    HW267934   6.714   4.688   3.616  0.6134  0.4661  1.6726
22165SOL     OW67935   0.927   5.226   2.642 -0.1300  0.4910 -0.2206
22165SOL    HW167936   1.016   5.191   2.643  0.8382  2.7630  1.6985
22165SOL    HW267937   0.905   5.232   2.549  2.5212  1.6967 -0.8637
22166SOL     OW67938   6.238   6.298   8.595  0.1587  0.2465  1.0065
22166SOL    HW167939   6.304   6.362   8.623 -1.1691  1.1919  2.1282
22166SOL    HW267940   6.245   6.296   8.499  0.3338  1.9893  0.9570
22167SOL     OW67941   2.750   4.452   8.537 -0.6180  0.0626 -0.0037
22167SOL    HW167942   2.802   4.483   8.463 -0.4414 -1.3502 -0.4902
22167SOL    HW267943   2.789   4.368   8.560  1.3917  1.7733  3.7335
22168SOL     OW67944   5.319   0.568   6.355  0.2436 -0.9269  0.2870
22168SOL    HW167945   5.277   0.488   6.389  0.3943 -0.8913  0.5584
22168SOL    HW267946   5.252   0.635   6.364 -0.2633 -1.2483 -0.9533
22169SOL     OW67947   1.884   6.903   2.651  0.1072  0.3910  0.1017
22169SOL    HW167948   1.952   6.856   2.699  0.6199  0.0376 -0.9237
22169SOL    HW267949   1.901   6.881   2.559 -3.3696 -2.4463 -0.0795
22170SOL     OW67950   7.726   1.111   2.991 -0.3534  0.0674  0.0911
22170SOL    HW167951   7.726   1.019   2.966 -0.2829  0.0280  0.2382
22170SOL    HW267952   7.650   1.121   3.048  0.3244 -0.1648  1.0585
22171SOL     OW67953   3.091   2.963   7.038 -0.3019 -0.0058  0.6262
22171SOL    HW167954   3.110   3.056   7.046 -1.3762  0.1517  1.5812
22171SOL    HW267955   3.158   2.920   7.092  1.0696  0.0776 -0.9327
22172SOL     OW67956   2.275   1.398   8.889  0.6499 -0.8364  0.7767
22172SOL    HW167957   2.259   1.319   8.838 -2.8955 -0.7169  1.4836
22172SOL    HW267958   2.288   1.368   8.978  1.1900 -0.7235  0.7375
22173SOL     OW67959   4.703   7.560   3.536  0.1235  0.1476 -0.0582
22173SOL    HW167960   4.634   7.603   3.585 -0.8907  0.2554 -1.5159
22173SOL    HW267961   4.675   7.566   3.445  1.1189 -1.4903 -0.5161
22174SOL     OW67962   0.640   2.299   0.946  0.3169  0.0541 -0.1871
22174SOL    HW167963   0.681   2.232   1.001 -1.3062 -1.5229 -0.7916
22174SOL    HW267964   0.599   2.359   1.008 -1.1760 -1.4991  0.3913
22175SOL     OW67965   3.280   6.724   5.642 -0.1760  0.2095  0.0219
22175SOL    HW167966   3.293   6.674   5.723 -0.5135 -0.3183 -0.2427
22175SOL    HW267967   3.191   6.703   5.616  0.0724  0.0475 -0.7054
22176SOL     OW67968   1.724   6.936   5.694  0.6835 -0.2769  0.2282
22176SOL    HW167969   1.713   6.844   5.719  1.3298  0.0169  1.6648
22176SOL    HW267970   1.814   6.941   5.662  1.0780  0.0852  1.3383
22177SOL     OW67971   6.159   2.403   9.562  0.0830  0.4591 -0.4826
22177SOL    HW167972   6.124   2.320   9.530  0.8130  0.4885 -1.4016
22177SOL    HW267973   6.106   2.423   9.638 -0.3644 -0.6571 -0.4751
22178SOL     OW67974   5.510   1.627  11.086 -0.2953  0.1478 -0.0573
22178SOL    HW167975   5.528   1.533  11.087 -0.2271  0.0701 -2.6461
22178SOL    HW267976   5.592   1.667  11.056 -1.0319  0.7890 -1.2921
22179SOL     OW67977   7.288   6.931  10.726  0.0085 -0.0283 -0.0608
22179SOL    HW167978   7.242   6.950  10.645 -1.0627 -1.1905  0.2416
22179SOL    HW267979   7.291   7.014  10.772 -2.0972  0.0512  0.0314
22180SOL     OW67980   4.974   4.917   2.039 -0.7712  0.5272 -0.4104
22180SOL    HW167981   4.981   4.884   1.950 -0.5377  0.4278 -0.3558
22180SOL    HW267982   5.029   4.995   2.040 -1.1563  0.8064 -0.4827
22181SOL     OW67983   4.374   3.338   3.556  0.1918 -0.1522  0.3114
22181SOL    HW167984   4.362   3.429   3.529 -1.1923  0.1044  1.6795
22181SOL    HW267985   4.386   3.291   3.474 -0.5388  1.0587 -0.5351
22182SOL     OW67986   0.214   2.009  10.336 -0.5110  0.0833 -0.3716
22182SOL    HW167987   0.163   2.081  10.299 -0.6326  0.7356  0.9746
22182SOL    HW267988   0.306   2.034  10.322 -0.4938  1.5661  1.8519
22183SOL     OW67989   3.480   7.081   2.563 -0.1763  0.1683 -0.0550
22183SOL    HW167990   3.446   6.992   2.559  0.8424 -0.2102 -1.7684
22183SOL    HW267991   3.442   7.125   2.487 -2.0764  1.8046  1.7220
22184SOL     OW67992   5.497   2.164   0.435 -0.0364 -0.4958 -0.0521
22184SOL    HW167993   5.496   2.236   0.372 -0.7184  1.8043  2.3832
22184SOL    HW267994   5.580   2.119   0.418 -0.4896 -0.4376 -2.9485
22185SOL     OW67995   3.398   1.613  11.849  0.2562  0.3633  0.5413
22185SOL    HW167996   3.451   1.634  11.925  2.1032 -1.2199 -0.2305
22185SOL    HW267997   3.378   1.520  11.858  1.8053 -0.2638 -1.5792
22186SOL     OW67998   5.163   7.451   3.972  0.2603 -0.5208 -0.1503
22186SOL    HW167999   5.126   7.477   4.056  0.6101  0.8154 -0.3843
22186SOL    HW268000   5.143   7.525   3.914 -1.9001 -2.3117 -1.8539
22187SOL     OW68001   1.188   3.691   1.013  0.4297  0.2262  0.3508
22187SOL    HW168002   1.160   3.670   1.102 -0.9138  0.2480 -0.0460
22187SOL    HW268003   1.284   3.696   1.018  0.3132  1.4535  2.0491
22188SOL     OW68004   4.144   4.613   0.355  0.1654 -0.2752  0.3271
22188SOL    HW168005   4.105   4.665   0.285  1.9909  1.1951  0.3064
22188SOL    HW268006   4.145   4.524   0.321 -0.8541  0.0592 -0.6556
22189SOL     OW68007   4.150   4.306   0.714 -0.0637  0.2393 -0.2975
22189SOL    HW168008   4.131   4.274   0.625  1.0907  2.5199 -1.4373
22189SOL    HW268009   4.091   4.380   0.726 -0.0301  0.1071  0.7625
22190SOL     OW68010   4.760   6.853   4.114 -0.1208  0.6035 -0.3902
22190SOL    HW168011   4.782   6.765   4.144  0.5416  1.0290  0.4254
22190SOL    HW268012   4.754   6.846   4.019  0.2491 -0.2481 -0.3542
22191SOL     OW68013   6.894   1.392   1.132  0.4899  0.3817  0.6629
22191SOL    HW168014   6.804   1.395   1.164 -0.0915  0.5604 -0.9366
22191SOL    HW268015   6.927   1.482   1.144  0.0294  0.6315  0.0901
22192SOL     OW68016   1.286   4.643   9.507  0.6746 -0.2715 -0.4328
22192SOL    HW168017   1.291   4.572   9.443 -0.1237 -1.0981  0.3852
22192SOL    HW268018   1.335   4.612   9.582  0.6977  0.2320 -0.2343
22193SOL     OW68019   3.090   5.313   3.709  0.4821 -0.1201 -0.3688
22193SOL    HW168020   3.150   5.357   3.769  0.0566 -1.5766  1.2305
22193SOL    HW268021   3.142   5.243   3.669  0.9163  1.2062 -2.1900
22194SOL     OW68022   4.786   1.640  12.265 -0.1702 -0.0955 -0.1434
22194SOL    HW168023   4.766   1.644  12.172  1.7039  0.1013 -0.5747
22194SOL    HW268024   4.790   1.547  12.285 -1.8235 -0.1404  0.0516
22195SOL     OW68025   2.329   2.640  10.086  0.1075  0.9456  0.4488
22195SOL    HW168026   2.381   2.612  10.010 -1.7911 -1.1093 -0.1699
22195SOL    HW268027   2.368   2.593  10.160 -1.0962 -1.0353 -0.0989
22196SOL     OW68028   3.235   0.179   9.730 -0.2862 -0.2432  0.9483
22196SOL    HW168029   3.258   0.108   9.790 -0.7808 -0.2188  1.1684
22196SOL    HW268030   3.319   0.206   9.692  0.1917  0.4468  2.4196
22197SOL     OW68031   0.151   6.140   8.049 -0.0639  0.3112  0.1978
22197SOL    HW168032   0.089   6.104   8.113  2.8780 -3.2685  1.3312
22197SOL    HW268033   0.112   6.120   7.964 -1.7800  0.8175  0.8144
22198SOL     OW68034   3.404   7.922   2.593 -0.3502  0.0353  0.4279
22198SOL    HW168035   3.489   7.924   2.637 -0.4989  1.1181  0.6966
22198SOL    HW268036   3.359   8.000   2.624 -1.8377 -1.0138  1.0183
22199SOL     OW68037   6.275   7.137   8.163 -0.4699  0.0896  0.1497
22199SOL    HW168038   6.240   7.052   8.190 -2.3251 -0.0085 -2.2950
22199SOL    HW268039   6.306   7.123   8.074 -1.6446  2.1706 -0.6297
22200SOL     OW68040   0.476   4.466   1.410 -0.8029  0.4281 -0.3273
22200SOL    HW168041   0.387   4.442   1.436 -0.7632  0.7563  0.1098
22200SOL    HW268042   0.501   4.536   1.470 -0.4230  0.6610 -0.7515
22201SOL     OW68043   1.146   2.064   7.839  0.3300  0.2416 -0.4509
22201SOL    HW168044   1.162   2.076   7.932  1.3790  0.2576 -0.6262
22201SOL    HW268045   1.233   2.061   7.799 -0.0246 -1.7498 -1.1966
22202SOL     OW68046   0.653   7.581   9.388  0.3048 -0.0537  0.3483
22202SOL    HW168047   0.569   7.606   9.349  1.4622  1.7944 -1.1430
22202SOL    HW268048   0.688   7.514   9.329  1.4240  1.7459 -1.1467
22203SOL     OW68049   4.905   2.792   8.983  0.4645 -0.8128  0.5203
22203SOL    HW168050   4.846   2.726   9.019 -2.3925  1.1205 -0.3269
22203SOL    HW268051   4.880   2.873   9.026  2.1772  0.2008 -0.2837
22204SOL     OW68052   7.694   7.515   7.679 -0.2199  0.0686  0.0757
22204SOL    HW168053   7.774   7.477   7.642 -0.9331 -1.1737 -0.2441
22204SOL    HW268054   7.721   7.601   7.712  1.3861 -0.5904  0.5537
22205SOL     OW68055   3.458   1.135   2.015 -0.1147 -0.1750 -0.5207
22205SOL    HW168056   3.551   1.147   1.996 -0.4816  1.2409 -1.6450
22205SOL    HW268057   3.426   1.080   1.943 -0.2800 -0.0670 -0.5307
22206SOL     OW68058   6.161   3.629   0.468  0.9308  0.1030 -0.0874
22206SOL    HW168059   6.172   3.545   0.423 -3.8253 -1.3482  0.9735
22206SOL    HW268060   6.231   3.629   0.534  0.2217 -3.9140  0.9587
22207SOL     OW68061   2.273   1.603   9.604  0.1955 -0.2975  0.0391
22207SOL    HW168062   2.365   1.599   9.576  0.5019  0.0342  0.9509
22207SOL    HW268063   2.251   1.513   9.627  0.4922 -0.2834  0.3973
22208SOL     OW68064   7.097   6.778   7.446 -0.0568  0.2445 -0.4094
22208SOL    HW168065   7.178   6.772   7.396  0.6722  0.4784  0.7196
22208SOL    HW268066   7.038   6.830   7.391  0.4601 -0.1531 -1.3496
22209SOL     OW68067   5.077   2.616   1.703 -0.2178  0.0232 -0.0502
22209SOL    HW168068   5.114   2.543   1.653 -2.4830 -0.6273 -0.8874
22209SOL    HW268069   5.153   2.655   1.747  1.2398 -2.0485 -0.5541
22210SOL     OW68070   5.951   0.565   4.361  0.2811  0.3572 -0.4204
22210SOL    HW168071   6.043   0.592   4.368  0.3216  1.1572 -2.9947
22210SOL    HW268072   5.954   0.470   4.354  0.7257  0.2000  1.4831
22211SOL     OW68073   6.060   6.952  11.084 -0.0003  0.8465  0.1001
22211SOL    HW168074   5.998   7.016  11.118  0.8999  1.3834  0.7662
22211SOL    HW268075   6.112   6.925  11.160  0.4362  0.2380 -0.3966
22212SOL     OW68076   3.711   5.846   0.487 -0.2358 -0.0538  0.9854
22212SOL    HW168077   3.637   5.788   0.505  0.0615 -0.4824  0.8421
22212SOL    HW268078   3.671   5.931   0.470 -0.6400 -0.0884  1.7533
22213SOL     OW68079   5.221   1.464  11.933 -0.3809 -0.4509  0.1526
22213SOL    HW168080   5.277   1.452  11.856 -0.2526 -1.5254  0.4023
22213SOL    HW268081   5.220   1.379  11.976  0.2085  0.3226  1.8035
22214SOL     OW68082   5.364   7.925   4.011 -0.1993  0.2198 -0.0107
22214SOL    HW168083   5.421   7.997   4.035 -0.5919  0.1886  1.0679
22214SOL    HW268084   5.396   7.897   3.925  0.3668  1.2418 -0.1523
22215SOL     OW68085   5.023   2.764   0.917 -0.1015  0.1867 -0.1842
22215SOL    HW168086   4.931   2.748   0.894 -1.4382  2.5852  2.7776
22215SOL    HW268087   5.065   2.783   0.833 -2.4944 -0.1437 -1.5697
22216SOL     OW68088   7.343   0.205   5.801  0.4403 -0.1436 -1.3113
22216SOL    HW168089   7.272   0.261   5.771 -0.5884  0.2378  1.5102
22216SOL    HW268090   7.342   0.131   5.740 -3.1215 -0.6784 -0.8647
22217SOL     OW68091   3.118   1.501  11.934 -0.3841  0.8479  0.2735
22217SOL    HW168092   3.151   1.411  11.925  0.6347  0.9664  2.2374
22217SOL    HW268093   3.135   1.523  12.026 -1.5725  2.6926  0.0944
22218SOL     OW68094   1.791   2.302   1.663 -0.4748 -0.3963 -0.0435
22218SOL    HW168095   1.845   2.305   1.584  0.1383 -1.5776  0.3008
22218SOL    HW268096   1.793   2.391   1.697  1.8534 -0.5302  0.3272
22219SOL     OW68097   3.876   4.433   0.968 -0.9060  0.6069  0.7968
22219SOL    HW168098   3.924   4.358   0.933 -2.7837 -0.8202  1.0928
22219SOL    HW268099   3.934   4.470   1.035 -0.0801 -0.8228  0.9008
22220SOL     OW68100   6.339   0.342  10.833  0.1962 -0.3494  0.6920
22220SOL    HW168101   6.370   0.428  10.862  0.8995  0.2511 -1.5789
22220SOL    HW268102   6.369   0.281  10.900 -0.4384  1.1553  2.4302
22221SOL     OW68103   6.954   6.306   3.094  0.2807 -0.1952  0.0022
22221SOL    HW168104   6.977   6.214   3.079  0.7528 -0.2701  1.0971
22221SOL    HW268105   6.904   6.305   3.176 -1.5460  0.2800 -1.0433
22222SOL     OW68106   1.076   1.574   4.549 -0.3648 -0.1909 -0.1760
22222SOL    HW168107   1.059   1.661   4.514  0.6542  0.2813  0.4467
22222SOL    HW268108   0.989   1.535   4.560 -0.8288  0.7227 -0.5074
22223SOL     OW68109   7.701   3.467   6.948  0.3403  0.8047  0.3194
22223SOL    HW168110   7.625   3.525   6.946 -0.2658  0.0584  0.9560
22223SOL    HW268111   7.749   3.487   6.867 -0.2821  1.6069  0.1384
22224SOL     OW68112   6.156   0.660   7.790  0.2999 -0.1102 -0.8020
22224SOL    HW168113   6.234   0.607   7.773 -0.3280 -1.5787  0.6013
22224SOL    HW268114   6.083   0.603   7.771 -0.4009 -0.1534  1.6498
22225SOL     OW68115   0.819   4.501  11.822  0.0110  0.3343  0.0622
22225SOL    HW168116   0.826   4.585  11.869  0.5208  0.3166  0.0284
22225SOL    HW268117   0.873   4.441  11.873 -0.4128  0.0063  0.1241
22226SOL     OW68118   2.035   3.396   9.422 -0.0639 -0.0700  0.3632
22226SOL    HW168119   1.966   3.451   9.460  2.2444  2.6186  0.9689
22226SOL    HW268120   2.034   3.418   9.329 -0.1495 -0.1968  0.3332
22227SOL     OW68121   4.577   2.172   0.842 -0.7550 -0.2260 -0.5791
22227SOL    HW168122   4.641   2.115   0.886  0.7469  2.5171  1.0476
22227SOL    HW268123   4.596   2.161   0.748  2.1629  0.4414 -0.1584
22228SOL     OW68124   3.334   0.499   4.937 -0.0340  0.2846  0.5421
22228SOL    HW168125   3.380   0.447   4.871 -0.6523 -1.6380  1.5617
22228SOL    HW268126   3.393   0.573   4.953  1.1521 -0.3687 -0.5642
22229SOL     OW68127   3.663   7.819   1.199  0.1204  0.3163  0.2810
22229SOL    HW168128   3.637   7.732   1.229  1.7767  0.1565  1.4093
22229SOL    HW268129   3.611   7.879   1.251  0.9987  0.0001  1.5606
22230SOL     OW68130   3.455   7.265   4.710 -0.4171 -0.4434 -0.6565
22230SOL    HW168131   3.437   7.354   4.680 -1.1845 -0.0728  0.8172
22230SOL    HW268132   3.526   7.235   4.653  0.8489  1.6129 -0.2871
22231SOL     OW68133   1.471   0.128   5.334  0.3417  0.2122 -0.3492
22231SOL    HW168134   1.419   0.052   5.306  2.2268 -0.6499 -1.7570
22231SOL    HW268135   1.536   0.091   5.395 -0.3707  1.1950  1.0669
22232SOL     OW68136   3.623   0.430   1.690  0.3515 -0.7711 -0.2151
22232SOL    HW168137   3.657   0.446   1.778 -0.6541 -0.8505  0.2047
22232SOL    HW268138   3.638   0.337   1.675  2.1550 -0.4063 -0.8666
22233SOL     OW68139   7.169   4.469   1.560 -0.2375 -0.3691 -0.1567
22233SOL    HW168140   7.127   4.549   1.529  0.1825 -0.0331  0.1234
22233SOL    HW268141   7.262   4.492   1.568 -0.1532 -0.8035  0.1791
22234SOL     OW68142   4.347   1.609   2.127  0.2747 -0.5964  0.4593
22234SOL    HW168143   4.370   1.579   2.039 -1.1665 -1.5784  0.3867
22234SOL    HW268144   4.417   1.576   2.183  1.3768  0.3180 -0.3568
22235SOL     OW68145   2.756   2.902   3.128  0.2017  0.5213  0.1997
22235SOL    HW168146   2.672   2.934   3.161 -0.0157 -0.3561  0.5052
22235SOL    HW268147   2.785   2.970   3.066 -0.2023  1.3580  0.9020
22236SOL     OW68148   7.290   5.507   0.582 -0.2503  0.0245 -0.0133
22236SOL    HW168149   7.282   5.492   0.487 -0.3025  0.9220 -0.1642
22236SOL    HW268150   7.264   5.424   0.621 -0.2675 -0.3512 -0.7863
22237SOL     OW68151   0.792   5.251  12.234  0.5507  0.6615  0.2586
22237SOL    HW168152   0.819   5.284  12.148 -0.1227  0.0430 -0.1949
22237SOL    HW268153   0.815   5.322  12.295  1.9430  0.7032 -0.2858
22238SOL     OW68154   5.830   4.856  11.473  0.0901 -0.1294 -1.0476
22238SOL    HW168155   5.863   4.928  11.419  1.7741 -1.3977 -1.7889
22238SOL    HW268156   5.849   4.777  11.422 -1.3389 -1.1548 -0.0824
22239SOL     OW68157   5.065   0.930   8.825  0.1780  0.8514 -0.3758
22239SOL    HW168158   4.971   0.922   8.811  0.3123 -0.3670 -0.6538
22239SOL    HW268159   5.104   0.903   8.742  0.8269 -1.5782  0.6276
22240SOL     OW68160   7.193   3.990   1.154 -0.1831 -0.2452  0.0629
22240SOL    HW168161   7.190   4.018   1.246  1.1949  0.0631  0.0318
22240SOL    HW268162   7.104   3.961   1.135 -0.2249 -1.4009  1.8313
22241SOL     OW68163   6.086   6.640   6.646 -0.2956  0.2348 -0.6507
22241SOL    HW168164   6.056   6.573   6.707 -2.2821  0.1667 -1.6375
22241SOL    HW268165   6.182   6.638   6.654 -0.4170 -1.0271  1.0893
22242SOL     OW68166   3.739   7.705   7.259 -0.0928  0.4058 -0.2663
22242SOL    HW168167   3.806   7.772   7.273 -1.1072  1.5476 -0.7576
22242SOL    HW268168   3.685   7.709   7.338  0.6588 -0.8472  0.3471
22243SOL     OW68169   3.788   5.740   7.815  0.6059  0.6112 -0.2447
22243SOL    HW168170   3.877   5.747   7.781  0.1719  0.7361 -1.4059
22243SOL    HW268171   3.738   5.702   7.743 -0.4767  1.4463  0.0393
22244SOL     OW68172   3.740   1.518   7.391 -0.3348 -0.4175 -0.2057
22244SOL    HW168173   3.805   1.568   7.342  0.0633 -0.8097 -0.0848
22244SOL    HW268174   3.660   1.525   7.339  0.1039 -0.9073 -0.9640
22245SOL     OW68175   5.707   0.147   2.077  0.0793  0.1441 -0.4701
22245SOL    HW168176   5.696   0.137   2.171  1.5063  3.4999  0.1741
22245SOL    HW268177   5.633   0.202   2.050  0.6919  0.7493 -0.9466
22246SOL     OW68178   1.075   1.811   9.668  0.0195  0.2274  0.3349
22246SOL    HW168179   1.140   1.850   9.609  0.4383 -1.5854 -0.4674
22246SOL    HW268180   1.071   1.719   9.642 -0.4285 -0.4446  2.5803
22247SOL     OW68181   3.267   4.082  11.436  1.1340  0.1891  0.8743
22247SOL    HW168182   3.284   4.000  11.390  1.1895  0.2067  0.8623
22247SOL    HW268183   3.354   4.113  11.461  1.5518  1.9950 -2.1741
22248SOL     OW68184   0.538   4.257  11.839 -0.5227  0.3143 -0.2593
22248SOL    HW168185   0.486   4.302  11.906 -1.3244 -0.0188 -0.6414
22248SOL    HW268186   0.514   4.301  11.757  0.1372  0.4453 -0.3895
22249SOL     OW68187   4.475   1.396   5.989  0.0845  0.6790  0.3902
22249SOL    HW168188   4.380   1.394   5.993  0.0722  1.2290  0.4878
22249SOL    HW268189   4.498   1.486   6.015  0.5323  1.2199 -1.7090
22250SOL     OW68190   6.044   7.519   0.012  0.1704  0.2691  0.1661
22250SOL    HW168191   6.073   7.428   0.025 -1.9739 -0.1632  2.5652
22250SOL    HW268192   6.030   7.526  -0.083  1.4806 -1.5133 -0.2191
22251SOL     OW68193   6.342   0.409   0.984  0.7232 -0.3859 -0.3387
22251SOL    HW168194   6.409   0.461   1.029  0.8410 -0.8997  0.0856
22251SOL    HW268195   6.276   0.474   0.957  0.0841 -0.1722  1.5770
22252SOL     OW68196   4.693   7.288  10.488 -0.0937  0.0687 -0.0986
22252SOL    HW168197   4.639   7.221  10.445 -0.2092  0.7552 -1.0337
22252SOL    HW268198   4.772   7.241  10.515 -1.0020 -0.8831  1.0192
22253SOL     OW68199   7.547   7.194  10.626  0.6577 -0.0028 -0.0487
22253SOL    HW168200   7.507   7.166  10.708 -0.1082  0.3860 -0.2768
22253SOL    HW268201   7.510   7.137  10.560  0.1618  0.6214 -0.3183
22254SOL     OW68202   1.061   7.758   5.079  0.3391 -0.0588 -0.5238
22254SOL    HW168203   1.155   7.746   5.067  0.3887 -0.1611 -0.0614
22254SOL    HW268204   1.027   7.670   5.098  0.1308 -0.0420 -0.8087
22255SOL     OW68205   5.433   0.864   2.073 -0.6303  0.2954  0.3854
22255SOL    HW168206   5.367   0.809   2.115  0.8780 -1.3900  0.6859
22255SOL    HW268207   5.446   0.824   1.987 -2.9572  3.1072 -1.4614
22256SOL     OW68208   5.516   0.817  10.230 -0.1490  0.1019  0.1043
22256SOL    HW168209   5.551   0.900  10.198  2.7108 -1.0138  0.0046
22256SOL    HW268210   5.581   0.752  10.202 -0.5806 -1.7371  2.9622
22257SOL     OW68211   2.517   2.591   3.000 -0.4149  0.4033  0.3166
22257SOL    HW168212   2.517   2.556   3.089 -0.5066 -1.3649 -0.3290
22257SOL    HW268213   2.609   2.584   2.972 -0.4921  0.3777  0.0659
22258SOL     OW68214   4.196   2.029   1.178  0.1302  0.2163  0.3453
22258SOL    HW168215   4.199   2.095   1.248 -0.3298  0.6360 -0.0272
22258SOL    HW268216   4.286   2.023   1.147 -0.0356  1.5463 -0.4253
22259SOL     OW68217   7.495   4.156   2.261  0.6306 -0.5556 -0.5292
22259SOL    HW168218   7.495   4.081   2.201  1.4417 -0.8512 -0.1780
22259SOL    HW268219   7.403   4.183   2.266  0.5243 -0.6571 -1.7348
22260SOL     OW68220   7.343   6.623  10.756  0.1240  0.0857 -0.2902
22260SOL    HW168221   7.303   6.710  10.758  0.9056  0.4419  0.3406
22260SOL    HW268222   7.402   6.622  10.831  0.1596 -0.9797 -0.3177
22261SOL     OW68223   5.771   0.783   2.838  0.0154 -0.1727  0.1257
22261SOL    HW168224   5.779   0.809   2.930  0.6427  2.6351 -0.6247
22261SOL    HW268225   5.859   0.753   2.814  0.5171  1.4523 -0.1598
22262SOL     OW68226   4.907   3.489   3.437 -0.4420  0.5076  0.4946
22262SOL    HW168227   4.979   3.462   3.494 -0.5140 -2.0173 -0.4618
22262SOL    HW268228   4.876   3.571   3.474  0.2528 -0.4236  3.4000
22263SOL     OW68229   4.421   1.672  11.130 -0.5142 -0.4361  0.4324
22263SOL    HW168230   4.459   1.641  11.048 -1.2044  1.1319 -0.5138
22263SOL    HW268231   4.476   1.745  11.157 -0.5590 -0.6515  1.1338
22264SOL     OW68232   3.913   1.199   0.614 -0.3263  0.0957 -0.5063
22264SOL    HW168233   3.936   1.176   0.524 -0.0867 -0.0054 -0.4172
22264SOL    HW268234   3.994   1.234   0.652 -0.5091  0.4418 -0.4301
22265SOL     OW68235   1.601   6.874   6.087  0.4902  0.7809 -0.6512
22265SOL    HW168236   1.684   6.919   6.074  0.6172  0.6676 -0.2621
22265SOL    HW268237   1.621   6.804   6.149  0.1056  0.7598 -0.5453
22266SOL     OW68238   0.346   0.487   5.215 -0.1850  0.0886 -0.0131
22266SOL    HW168239   0.434   0.461   5.188 -1.0232 -0.8236 -2.0560
22266SOL    HW268240   0.360   0.545   5.289  2.0463 -1.7816  1.1732
22267SOL     OW68241   2.284   0.712   8.875 -0.2211  0.0976 -0.3007
22267SOL    HW168242   2.256   0.629   8.837  0.0179 -1.2394  2.2066
22267SOL    HW268243   2.204   0.764   8.880 -0.7553 -0.7096 -0.2244
22268SOL     OW68244   6.493   1.437   8.643 -0.6140  0.0813 -0.5736
22268SOL    HW168245   6.508   1.407   8.553  1.4604 -0.3096 -0.1456
22268SOL    HW268246   6.503   1.358   8.696  2.8900  1.0207  0.3901
22269SOL     OW68247   1.482   5.107  11.701 -0.1209 -0.2109 -0.5767
22269SOL    HW168248   1.453   5.088  11.790  3.8796 -1.4631  0.6601
22269SOL    HW268249   1.516   5.197  11.706  1.0414 -0.6361 -0.4968
22270SOL     OW68250   1.983   4.518   9.458  0.1431 -0.0950 -0.6154
22270SOL    HW168251   2.053   4.581   9.443  1.1009 -0.8954  0.3699
22270SOL    HW268252   1.913   4.569   9.498  0.5915  0.5003 -0.5800
22271SOL     OW68253   2.603   3.732   6.037  0.1676  0.6033  0.0018
22271SOL    HW168254   2.647   3.687   6.109  1.8347  1.2753 -0.5460
22271SOL    HW268255   2.658   3.808   6.019 -2.1063  2.4491  0.3372
22272SOL     OW68256   2.109   3.772   0.407  0.5439 -0.4176  0.3836
22272SOL    HW168257   2.043   3.818   0.355 -0.0592  0.4494  1.8657
22272SOL    HW268258   2.060   3.734   0.480  1.4724 -1.0207  0.7105
22273SOL     OW68259   2.722   2.625   7.047 -0.0216 -0.4796  0.5233
22273SOL    HW168260   2.629   2.638   7.066 -0.3704 -0.6596 -0.9077
22273SOL    HW268261   2.763   2.709   7.065 -1.0447  0.6372 -1.9136
22274SOL     OW68262   1.042   0.776   6.927  0.3750 -0.2516  0.2155
22274SOL    HW168263   0.962   0.769   6.978 -0.2813  1.8974 -0.4382
22274SOL    HW268264   1.021   0.733   6.843  0.5354 -1.2546  0.6652
22275SOL     OW68265   7.544   3.963   9.679 -0.1195 -0.2849 -0.0777
22275SOL    HW168266   7.582   3.878   9.654  0.0648 -0.1391 -0.2991
22275SOL    HW268267   7.473   3.977   9.616 -0.5541 -0.5666  0.3488
22276SOL     OW68268   2.369   6.346   2.906 -0.2124 -0.0604  0.7090
22276SOL    HW168269   2.300   6.412   2.910  0.5542  0.8926 -1.0005
22276SOL    HW268270   2.362   6.299   2.989 -2.1540  0.7662  1.0547
22277SOL     OW68271   6.613   0.251   9.303 -0.4290 -0.1607  0.0019
22277SOL    HW168272   6.567   0.191   9.245  1.0201 -0.4980 -0.8559
22277SOL    HW268273   6.665   0.305   9.244  0.6408 -0.1229  0.9484
22278SOL     OW68274   3.257   6.987   5.074  0.6395  0.2398  0.1062
22278SOL    HW168275   3.258   7.010   4.981  0.1393  1.7469  0.4626
22278SOL    HW268276   3.199   6.911   5.079 -0.8793  1.3030 -0.5758
22279SOL     OW68277   3.683   2.114   0.737  1.0627 -0.3155  0.2374
22279SOL    HW168278   3.742   2.131   0.663 -0.8201 -0.8551 -1.4944
22279SOL    HW268279   3.666   2.200   0.774  1.3184  0.0998 -0.5758
22280SOL     OW68280   1.023   6.964   8.072  0.8864 -0.0768 -0.1606
22280SOL    HW168281   1.005   6.989   7.982  0.0609  0.4381  0.1442
22280SOL    HW268282   0.984   7.033   8.125 -1.4623 -1.9279  0.7021
22281SOL     OW68283   0.412   4.415   0.435  0.1613  0.3662  0.8943
22281SOL    HW168284   0.397   4.482   0.368 -0.9097  1.9525  2.6104
22281SOL    HW268285   0.507   4.404   0.437  0.2007  0.1216 -0.9920
22282SOL     OW68286   0.379   2.812   7.355  0.0742 -0.3025  0.3903
22282SOL    HW168287   0.422   2.897   7.346  2.1180 -1.1601  1.3978
22282SOL    HW268288   0.307   2.816   7.292  0.1257  2.1355  0.3738
22283SOL     OW68289   0.648   0.409   7.836  0.5724  0.2794 -0.6144
22283SOL    HW168290   0.692   0.456   7.907  1.5699  1.1272 -1.7529
22283SOL    HW268291   0.560   0.447   7.833  1.0472  1.4057 -0.8699
22284SOL     OW68292   6.126   1.938   9.844 -0.6026  0.3156 -0.0540
22284SOL    HW168293   6.106   1.946   9.751  0.7352  0.6039 -0.3370
22284SOL    HW268294   6.128   2.029   9.876 -2.1857  0.1722  0.5289
22285SOL     OW68295   4.735   1.617   3.750 -0.3538  0.6890  0.4066
22285SOL    HW168296   4.659   1.559   3.739 -0.9966  1.4259  0.8948
22285SOL    HW268297   4.810   1.558   3.745 -0.9834 -0.1478  0.5589
22286SOL     OW68298   2.526   5.263   6.609  0.2424  0.1279  0.5422
22286SOL    HW168299   2.488   5.180   6.638  0.8406 -0.8352 -1.2654
22286SOL    HW268300   2.537   5.314   6.690 -0.2643 -1.4866  1.6850
22287SOL     OW68301   6.121   3.493   7.884 -0.2281 -0.1689  0.2265
22287SOL    HW168302   6.177   3.570   7.874 -2.2058  1.4208  0.6224
22287SOL    HW268303   6.118   3.478   7.979  0.7652 -1.2709  0.1092
22288SOL     OW68304   6.768   1.427   5.557 -0.0302 -0.8048  0.1811
22288SOL    HW168305   6.810   1.513   5.563  0.3398 -1.0114  0.6621
22288SOL    HW268306   6.678   1.446   5.530  0.8913 -0.4873 -3.1607
22289SOL     OW68307   2.210   4.717  10.173 -0.1311  0.3254  0.2098
22289SOL    HW168308   2.156   4.780  10.221  0.4345  0.0938  1.1664
22289SOL    HW268309   2.146   4.655  10.138 -0.6588  1.1770 -0.3889
22290SOL     OW68310   2.509   7.027   9.167 -0.1905 -0.2734 -0.2381
22290SOL    HW168311   2.414   7.014   9.177 -0.0869 -1.0277 -0.2418
22290SOL    HW268312   2.517   7.118   9.136 -0.9080 -0.1927 -0.2072
22291SOL     OW68313   6.464   2.334   0.084 -0.1493  0.1914  0.0525
22291SOL    HW168314   6.467   2.299  -0.004  0.4824  0.2716  0.0405
22291SOL    HW268315   6.384   2.297   0.122 -0.4582  0.2106 -0.5680
22292SOL     OW68316   6.372   4.225   3.104  0.7076  0.5381  0.1412
22292SOL    HW168317   6.415   4.285   3.043  0.8172  1.7631  1.3674
22292SOL    HW268318   6.414   4.243   3.189 -0.6837  0.1743  0.9394
22293SOL     OW68319   1.384   0.047  11.504  0.8277 -0.2450 -0.2124
22293SOL    HW168320   1.329   0.000  11.567 -0.5753  0.2401 -1.0263
22293SOL    HW268321   1.363   0.006  11.420  1.9599 -0.2478 -0.5076
22294SOL     OW68322   0.412   5.536  10.694  0.3123  0.2227  0.3249
22294SOL    HW168323   0.413   5.444  10.719  0.3945 -0.0058 -0.4941
22294SOL    HW268324   0.463   5.580  10.763  2.6067 -0.7180 -0.6505
22295SOL     OW68325   2.023   2.277   5.595  0.6050 -0.1509  0.9052
22295SOL    HW168326   2.062   2.198   5.633  1.7326  0.1699  0.4301
22295SOL    HW268327   2.065   2.349   5.642  0.6875  0.2072  0.2815
22296SOL     OW68328   0.832   7.149   1.456 -0.1573 -0.0665 -0.0462
22296SOL    HW168329   0.878   7.119   1.535 -1.2593  0.1958  0.7110
22296SOL    HW268330   0.830   7.072   1.400 -0.4773 -0.6298  0.7175
22297SOL     OW68331   3.334   2.581   8.128  0.1261  0.1081  0.1469
22297SOL    HW168332   3.323   2.661   8.077  2.0140 -0.0876 -0.6549
22297SOL    HW268333   3.313   2.510   8.066 -0.8974 -0.0657  0.6636
22298SOL     OW68334   7.229   7.282   5.922  0.1745  0.0390  0.4825
22298SOL    HW168335   7.228   7.338   5.844 -0.1825  0.6862  0.9478
22298SOL    HW268336   7.233   7.193   5.886 -1.4489  0.2505 -0.3332
22299SOL     OW68337   2.807   4.664   6.049 -0.2032 -0.3027  0.5557
22299SOL    HW168338   2.877   4.605   6.076 -1.2181 -1.9916 -0.3387
22299SOL    HW268339   2.729   4.628   6.091 -1.3432 -1.3458 -2.2390
22300SOL     OW68340   1.575   1.749   0.128  0.2271  0.4876 -0.1248
22300SOL    HW168341   1.658   1.782   0.093  0.4928 -0.7957 -0.7571
22300SOL    HW268342   1.551   1.676   0.070 -1.1141  0.5367  0.3198
22301SOL     OW68343   5.729   2.123   8.149 -0.4708  0.0071 -0.0362
22301SOL    HW168344   5.810   2.082   8.179 -1.2695 -2.4209 -0.9590
22301SOL    HW268345   5.754   2.174   8.072  0.1741 -0.7502 -0.3319
22302SOL     OW68346   4.878   1.223   7.239 -0.2083  0.2153  0.2330
22302SOL    HW168347   4.791   1.256   7.217 -0.0096  0.4707 -0.1796
22302SOL    HW268348   4.913   1.191   7.156 -0.0343 -0.1859  0.4587
22303SOL     OW68349   0.844   3.294   2.641 -0.0872 -0.4217  0.4625
22303SOL    HW168350   0.849   3.319   2.549  0.7525  1.3131  0.9240
22303SOL    HW268351   0.899   3.216   2.647  0.5226 -0.0790 -0.3766
22304SOL     OW68352   0.197   2.750  10.182 -0.4821  0.2398  0.0272
22304SOL    HW168353   0.281   2.757  10.137 -0.4344 -1.2033 -0.1616
22304SOL    HW268354   0.199   2.820  10.248  1.2773 -0.3789  0.6805
22305SOL     OW68355   6.496   5.292  10.190  0.4808 -0.0534  0.1160
22305SOL    HW168356   6.415   5.321  10.147 -0.0646 -1.0823  0.4199
22305SOL    HW268357   6.562   5.297  10.122 -0.1493 -0.6249 -0.5560
22306SOL     OW68358   7.919   1.617   7.699  0.4541 -0.4569 -0.0382
22306SOL    HW168359   7.934   1.665   7.781 -1.6178 -1.4874  1.0253
22306SOL    HW268360   7.877   1.681   7.642  2.0049  0.3008 -0.3687
22307SOL     OW68361   6.645   5.922   2.282  0.4014 -0.4572  0.0175
22307SOL    HW168362   6.603   5.987   2.339  0.2437  0.8355 -1.4976
22307SOL    HW268363   6.739   5.935   2.297  0.4931  1.7309 -1.8238
22308SOL     OW68364   5.924   3.788   3.981 -0.3291  0.4614 -0.0838
22308SOL    HW168365   5.927   3.694   3.963  1.7190 -0.0281  2.1789
22308SOL    HW268366   5.920   3.794   4.077 -0.4262  2.6736 -0.1655
22309SOL     OW68367   1.302   1.528   5.206  0.3207 -0.2992 -0.1386
22309SOL    HW168368   1.340   1.455   5.255  2.3519 -0.6252 -2.0271
22309SOL    HW268369   1.223   1.492   5.166  0.1907 -0.8358  0.5868
22310SOL     OW68370   1.082   2.994   8.254 -0.2605 -0.2464 -0.8601
22310SOL    HW168371   1.087   2.998   8.350 -0.7250  1.6918 -0.8856
22310SOL    HW268372   1.100   2.902   8.234  0.2192 -0.6303  1.0566
22311SOL     OW68373   2.797   1.648   5.918  0.3829 -0.2202  0.1498
22311SOL    HW168374   2.836   1.641   5.831 -0.9904  1.8847 -0.7133
22311SOL    HW268375   2.834   1.729   5.953 -1.3647  0.5549  0.2657
22312SOL     OW68376   1.856   3.062   2.547  0.1528 -0.2534 -0.3121
22312SOL    HW168377   1.838   3.057   2.641 -1.0095  0.0732 -0.4945
22312SOL    HW268378   1.785   3.012   2.507 -0.8721  1.7578 -1.1385
22313SOL     OW68379   2.977   0.278   6.625 -0.3278  0.0392  0.5497
22313SOL    HW168380   2.941   0.194   6.653  0.2241 -0.3807  0.0236
22313SOL    HW268381   3.039   0.301   6.694  1.7827 -1.4856 -0.7133
22314SOL     OW68382   4.158   1.521   7.623 -0.2761  0.3338 -0.3405
22314SOL    HW168383   4.159   1.553   7.533 -0.8667 -1.3656 -0.9910
22314SOL    HW268384   4.102   1.443   7.620  1.6933 -1.2213  0.9729
22315SOL     OW68385   4.494   3.820   8.058  0.5640 -0.4608 -0.6040
22315SOL    HW168386   4.423   3.869   8.101  1.2825  0.3296 -0.2947
22315SOL    HW268387   4.492   3.849   7.967 -0.2634 -1.3337 -0.8836
22316SOL     OW68388   2.933   0.312   8.544  0.2824  0.0417  0.1639
22316SOL    HW168389   2.907   0.263   8.466  0.8992  1.0885 -0.7162
22316SOL    HW268390   2.882   0.393   8.540  0.4965  0.2080  0.7163
22317SOL     OW68391   5.557   2.713   0.527 -0.0966  0.1377 -0.8085
22317SOL    HW168392   5.570   2.754   0.612  0.2195 -0.4043 -0.5855
22317SOL    HW268393   5.615   2.760   0.468  0.7197 -0.3671 -0.4309
22318SOL     OW68394   5.200   1.657   7.717 -0.1249 -0.3125  0.3387
22318SOL    HW168395   5.112   1.621   7.719 -0.0727 -0.4526  0.1709
22318SOL    HW268396   5.204   1.706   7.634  0.3771 -1.3918 -0.2932
22319SOL     OW68397   5.126   3.875   4.705 -0.0102  0.0621  0.6294
22319SOL    HW168398   5.084   3.891   4.790  0.3013  0.7146  0.6715
22319SOL    HW268399   5.054   3.866   4.643 -0.2705  3.4013  0.2876
22320SOL     OW68400   6.364   7.046   7.918  0.5462  0.1919  0.2814
22320SOL    HW168401   6.403   7.067   7.833  4.8618  1.8458  2.3366
22320SOL    HW268402   6.394   6.957   7.937 -0.3056 -0.1273  0.1733
22321SOL     OW68403   1.656   1.804   8.743  0.2828 -0.0254 -0.2518
22321SOL    HW168404   1.676   1.735   8.807  2.9409  1.4005  0.5814
22321SOL    HW268405   1.579   1.848   8.779  0.0790 -0.9662  0.5057
22322SOL     OW68406   5.362   1.761  11.520  0.1220  0.4748  0.3395
22322SOL    HW168407   5.435   1.741  11.580 -0.3514  0.6055  0.9698
22322SOL    HW268408   5.383   1.848  11.485  1.1259 -0.2053 -0.7960
22323SOL     OW68409   4.685   5.264   2.623  0.3303 -0.2629 -0.4330
22323SOL    HW168410   4.621   5.298   2.560 -0.0047  0.4658  0.2795
22323SOL    HW268411   4.695   5.335   2.687  1.6852 -0.4665 -0.4089
22324SOL     OW68412   4.208   0.545   9.295 -0.3714 -0.2465  0.7443
22324SOL    HW168413   4.245   0.460   9.320  1.8271  0.2735 -0.4609
22324SOL    HW268414   4.186   0.534   9.202  0.2398  0.5852  0.4947
22325SOL     OW68415   5.567   7.034   8.408 -0.3615  0.2361  0.4599
22325SOL    HW168416   5.580   7.008   8.317 -2.5164  0.6009 -0.0161
22325SOL    HW268417   5.546   6.953   8.454  1.6255 -0.0981  0.8924
22326SOL     OW68418   4.870   2.651   0.623 -0.0646  0.4530  0.5031
22326SOL    HW168419   4.819   2.721   0.664 -0.3815  0.1293  0.6664
22326SOL    HW268420   4.832   2.570   0.658 -0.5539  0.1583 -0.6651
22327SOL     OW68421   2.813   0.201   3.400 -0.6018 -0.4552  0.1290
22327SOL    HW168422   2.813   0.130   3.336 -1.1842 -0.4894  0.1686
22327SOL    HW268423   2.763   0.166   3.474  0.4588 -0.5965  0.8057
22328SOL     OW68424   4.125   0.151  12.255 -0.1097  0.3469  0.1921
22328SOL    HW168425   4.191   0.197  12.307  1.3119  0.4717 -1.6380
22328SOL    HW268426   4.050   0.211  12.253  0.3044  0.9055  0.9710
22329SOL     OW68427   2.909   3.469   0.172  0.0232  0.0705 -0.1576
22329SOL    HW168428   2.912   3.386   0.124  1.3601 -0.0370  0.0713
22329SOL    HW268429   2.885   3.444   0.261  0.3135 -0.0675 -0.1157
22330SOL     OW68430   3.674   6.809   2.711 -0.2850 -0.4835  0.4147
22330SOL    HW168431   3.689   6.715   2.712 -0.9596 -0.5912  0.8768
22330SOL    HW268432   3.749   6.846   2.758 -0.2595 -0.8336  0.6536
22331SOL     OW68433   5.479   3.533   7.838 -0.2268  0.2147 -0.0059
22331SOL    HW168434   5.571   3.536   7.811 -0.9915 -1.5727 -3.3635
22331SOL    HW268435   5.479   3.478   7.916  1.4002 -1.5435 -1.1450
22332SOL     OW68436   3.818   4.317   6.339  0.4011 -0.0282  0.1019
22332SOL    HW168437   3.876   4.249   6.373  0.2873 -0.1248  0.1021
22332SOL    HW268438   3.875   4.372   6.285  0.3110 -0.6618 -0.6586
22333SOL     OW68439   6.188   0.375   0.198 -0.3537  0.2860 -0.8935
22333SOL    HW168440   6.216   0.457   0.155 -2.3113  0.3009 -2.2403
22333SOL    HW268441   6.098   0.391   0.225 -0.1787 -0.8378  0.4632
22334SOL     OW68442   5.107   7.681   3.753  0.6418  0.1964 -0.0923
22334SOL    HW168443   5.104   7.776   3.750 -0.6481  0.2263  0.8781
22334SOL    HW268444   5.015   7.654   3.761  0.9980 -1.1095 -0.0439
22335SOL     OW68445   6.662   1.000   3.794  0.4953 -0.0552 -0.2868
22335SOL    HW168446   6.748   0.988   3.835  0.8973  1.6005 -0.5910
22335SOL    HW268447   6.613   0.921   3.819  1.9513 -0.8413  0.2377
22336SOL     OW68448   6.673   4.231  11.435 -0.1320 -0.7226  0.4247
22336SOL    HW168449   6.692   4.242  11.342  0.3197  0.4890  0.6411
22336SOL    HW268450   6.752   4.264  11.479 -0.4616 -1.0080  1.2462
22337SOL     OW68451   1.316   1.753   4.175 -0.2742 -0.3224 -0.1976
22337SOL    HW168452   1.352   1.748   4.264 -0.4220 -1.1997 -0.1771
22337SOL    HW268453   1.378   1.809   4.127 -0.4365  0.5320  0.5611
22338SOL     OW68454   5.645   0.410   9.465  0.4313 -0.2640  0.0981
22338SOL    HW168455   5.591   0.420   9.543  0.1831  0.8954 -0.2104
22338SOL    HW268456   5.732   0.439   9.492  0.7387 -1.4123  0.3844
22339SOL     OW68457   2.537   6.958   1.225  0.5713 -0.3364 -0.5577
22339SOL    HW168458   2.453   6.966   1.270  1.1347  0.8187  0.3297
22339SOL    HW268459   2.531   6.874   1.179 -1.5545  0.2699 -1.5515
22340SOL     OW68460   4.996   3.973   1.192 -0.0789 -0.1830 -0.2187
22340SOL    HW168461   5.048   3.935   1.264  1.1072  0.2641 -0.8149
22340SOL    HW268462   4.912   3.929   1.198  0.1547 -0.4903  1.1659
22341SOL     OW68463   4.630   5.479   3.906 -0.0002  0.4479 -0.0808
22341SOL    HW168464   4.663   5.563   3.874 -1.0642  1.0941  0.4762
22341SOL    HW268465   4.536   5.491   3.914 -0.4850 -1.4675 -1.9391
22342SOL     OW68466   6.709   1.746  10.967 -0.8831 -0.0592  0.0490
22342SOL    HW168467   6.788   1.713  11.008 -0.9530 -1.2237 -0.7278
22342SOL    HW268468   6.736   1.773  10.879 -0.4127  3.7714  1.1691
22343SOL     OW68469   7.005   5.447  10.941 -0.2156  0.1679  0.0164
22343SOL    HW168470   6.928   5.402  10.976  0.0352  0.7890  1.4529
22343SOL    HW268471   6.969   5.514  10.883 -0.6817 -0.4450 -0.4193
22344SOL     OW68472   1.767   0.240  11.180 -0.3697  0.1470 -0.1622
22344SOL    HW168473   1.728   0.243  11.092 -0.2239 -0.5420 -0.2516
22344SOL    HW268474   1.845   0.295  11.173  0.4065 -0.9863 -0.8518
22345SOL     OW68475   5.988   1.823   2.980 -0.2609  0.4611 -0.5243
22345SOL    HW168476   5.893   1.814   2.965 -0.4370 -0.7396  1.1368
22345SOL    HW268477   6.005   1.916   2.964 -1.7218  0.7065 -0.8422
22346SOL     OW68478   6.175   6.559   5.071  0.0230 -0.6756 -0.2882
22346SOL    HW168479   6.113   6.520   5.010 -0.5708 -0.6892  0.3108
22346SOL    HW268480   6.258   6.560   5.024 -0.8925  1.4983 -2.0048
22347SOL     OW68481   0.887   5.618   2.725 -0.0969 -0.1344  0.1153
22347SOL    HW168482   0.901   5.592   2.634  1.2670  0.7104  0.0671
22347SOL    HW268483   0.898   5.713   2.725 -1.7529  0.1013  0.8810
22348SOL     OW68484   0.421   0.462  11.525  0.1078 -0.0763 -0.2084
22348SOL    HW168485   0.475   0.541  11.514 -0.0274  0.0851  0.2587
22348SOL    HW268486   0.472   0.406  11.583 -0.3106  0.1632  0.4003
22349SOL     OW68487   3.358   7.791   8.586 -0.2945 -0.2113  1.0150
22349SOL    HW168488   3.383   7.780   8.494 -1.8445 -2.1350  0.7635
22349SOL    HW268489   3.294   7.863   8.584  0.0736  0.1123  0.6734
22350SOL     OW68490   4.103   6.840   7.935 -0.2933  0.0735 -0.6940
22350SOL    HW168491   4.050   6.833   8.015 -0.7688  1.5195 -0.8570
22350SOL    HW268492   4.075   6.765   7.882  2.2588 -2.8211  1.6649
22351SOL     OW68493   4.903   1.595   0.485  0.1304  0.4530  0.5910
22351SOL    HW168494   4.853   1.638   0.555  1.5760  1.1126  1.2531
22351SOL    HW268495   4.841   1.587   0.413 -0.9466  1.1969  1.3976
22352SOL     OW68496   4.629   1.719   2.336  0.2644  0.1073  0.6634
22352SOL    HW168497   4.687   1.712   2.412  2.0100 -0.6086 -0.6741
22352SOL    HW268498   4.632   1.811   2.312  0.1227  0.2392  1.1320
22353SOL     OW68499   2.870   0.658   3.204 -0.0871  0.4287 -0.6803
22353SOL    HW168500   2.958   0.675   3.169 -0.8513 -0.1117 -3.0853
22353SOL    HW268501   2.853   0.567   3.181 -1.3905  0.6255 -0.5386
22354SOL     OW68502   6.875   0.592   8.523 -0.0655  0.3120  0.2101
22354SOL    HW168503   6.847   0.529   8.457  1.2451  0.2627 -0.3281
22354SOL    HW268504   6.803   0.594   8.586 -1.4134  0.4422 -1.2590
22355SOL     OW68505   0.938   2.149   8.662  0.9136  0.6279 -0.6633
22355SOL    HW168506   0.859   2.182   8.704  0.9950 -0.5279  0.4439
22355SOL    HW268507   1.002   2.219   8.674  0.1141  1.5564 -1.5311
22356SOL     OW68508   3.659   5.129   2.824 -0.1513  0.5407 -0.0200
22356SOL    HW168509   3.738   5.108   2.773 -0.6906  0.5899 -0.8922
22356SOL    HW268510   3.687   5.120   2.915  0.9546  0.8527 -0.3056
22357SOL     OW68511   4.399   1.096   3.291  0.2565 -0.7316  0.4080
22357SOL    HW168512   4.433   1.053   3.369  0.6639  0.3444  0.8400
22357SOL    HW268513   4.473   1.145   3.256 -0.3125 -0.0045  0.1984
22358SOL     OW68514   1.344   7.914   6.941 -0.3885 -0.2981 -0.7664
22358SOL    HW168515   1.372   7.859   7.013  1.4834 -0.1805 -1.3689
22358SOL    HW268516   1.274   7.863   6.899  1.0531 -2.1038 -1.1102
22359SOL     OW68517   3.338   1.500   9.803  0.1175  0.1693  0.1645
22359SOL    HW168518   3.245   1.487   9.822  0.2278  1.2395  1.5734
22359SOL    HW268519   3.381   1.424   9.842 -0.1745 -0.4722 -0.7338
22360SOL     OW68520   3.278   4.110   4.050 -0.4390 -0.3546  0.2112
22360SOL    HW168521   3.201   4.058   4.071 -0.7507  0.0293  0.0315
22360SOL    HW268522   3.315   4.133   4.135 -0.0908 -1.1632  0.2906
22361SOL     OW68523   7.046   6.762  10.654 -0.0073 -0.4030  0.1723
22361SOL    HW168524   6.972   6.765  10.592  0.6543  0.6959 -0.5913
22361SOL    HW268525   7.093   6.682  10.630  0.7622  0.4760 -1.4039
22362SOL     OW68526   7.577   2.598   8.259 -0.1132 -0.2883 -0.6657
22362SOL    HW168527   7.659   2.644   8.241 -0.5452  0.2448 -1.3266
22362SOL    HW268528   7.592   2.509   8.228  0.9125 -0.7853  1.1077
22363SOL     OW68529   1.574   4.835  11.475 -0.3649 -0.1867 -0.3364
22363SOL    HW168530   1.568   4.919  11.431 -0.7808 -0.9021 -1.7056
22363SOL    HW268531   1.665   4.808  11.464 -0.7493 -0.9565 -1.9742
22364SOL     OW68532   2.951   5.249   4.294 -0.4103  0.0148  0.3380
22364SOL    HW168533   3.007   5.315   4.253 -2.9650 -0.0426 -3.8363
22364SOL    HW268534   2.902   5.296   4.361 -0.6794  1.9074 -1.1100
22365SOL     OW68535   2.629   6.506  10.202  0.2875 -0.1610 -0.2708
22365SOL    HW168536   2.667   6.419  10.202 -1.6599 -1.0739  0.6978
22365SOL    HW268537   2.640   6.538  10.113 -0.2526 -2.0019 -1.0245
22366SOL     OW68538   3.471   6.169   3.470 -0.2423  0.3869  0.6198
22366SOL    HW168539   3.508   6.081   3.480  1.1246  0.9184  0.4202
22366SOL    HW268540   3.457   6.200   3.559 -2.2038 -0.5898  0.7147
22367SOL     OW68541   3.190   6.310   4.080 -0.2724 -0.4014 -1.0579
22367SOL    HW168542   3.155   6.382   4.028 -0.0905 -0.0465 -0.6882
22367SOL    HW268543   3.170   6.333   4.170 -1.2326 -1.3593 -1.0043
22368SOL     OW68544   7.242   4.772  12.120  0.5946  0.1029 -0.5559
22368SOL    HW168545   7.179   4.833  12.082  0.8702 -1.0978 -3.1521
22368SOL    HW268546   7.325   4.821  12.120  0.4387  0.3740 -0.8336
22369SOL     OW68547   7.613   6.151   1.396  0.2466 -0.1150 -0.1487
22369SOL    HW168548   7.601   6.060   1.367 -1.7998 -0.1846  0.7354
22369SOL    HW268549   7.638   6.198   1.317  1.5242 -1.4478 -0.5934
22370SOL     OW68550   3.408   2.451  11.598 -0.3447 -0.0076 -0.1212
22370SOL    HW168551   3.389   2.529  11.651  0.5689  0.5320 -0.5631
22370SOL    HW268552   3.322   2.412  11.582 -0.6082 -0.5368  2.2514
22371SOL     OW68553   1.871   0.865  10.479  0.2075 -0.2893 -0.4507
22371SOL    HW168554   1.804   0.865  10.547  0.2026 -0.9315 -0.4494
22371SOL    HW268555   1.933   0.797  10.506  0.8222  0.2396 -0.4935
22372SOL     OW68556   2.802   1.721   9.518  0.0613  0.5020 -0.1596
22372SOL    HW168557   2.833   1.765   9.439 -1.1544  0.7579 -0.5165
22372SOL    HW268558   2.811   1.787   9.587 -1.6074  1.3088 -0.6605
22373SOL     OW68559   4.168   7.192   5.892  0.5628  0.4982 -0.4315
22373SOL    HW168560   4.140   7.246   5.967  0.0758  0.2760 -0.4476
22373SOL    HW268561   4.220   7.122   5.931  1.9556  1.4712 -0.4972
22374SOL     OW68562   1.539   3.800   8.946 -0.0351 -0.3228 -0.5293
22374SOL    HW168563   1.630   3.773   8.930  0.1230 -0.1269  0.0058
22374SOL    HW268564   1.514   3.849   8.867  0.4852  0.0242 -0.4858
22375SOL     OW68565   4.846   6.618   7.178 -0.4320  0.1550 -0.5592
22375SOL    HW168566   4.924   6.564   7.194 -1.2316 -1.4414 -1.7743
22375SOL    HW268567   4.876   6.686   7.118  0.1413 -0.1952 -0.6818
22376SOL     OW68568   6.426   6.276   1.164  0.0327  0.0876 -0.5555
22376SOL    HW168569   6.510   6.305   1.128  0.3797  0.5086  0.5212
22376SOL    HW268570   6.444   6.264   1.257 -1.1430  0.3434 -0.2809
22377SOL     OW68571   6.024   0.822   2.471  0.1243  0.1124 -0.2421
22377SOL    HW168572   6.112   0.840   2.438  0.9158 -2.4190  0.3066
22377SOL    HW268573   6.036   0.805   2.564 -0.9768 -0.0860 -0.1182
22378SOL     OW68574   3.731   4.927   0.364 -0.2485 -0.6107  0.0764
22378SOL    HW168575   3.682   4.902   0.442 -0.1828 -0.3157  0.2159
22378SOL    HW268576   3.677   4.994   0.322  0.7594  0.8991  1.0887
22379SOL     OW68577   0.293   6.759  12.280 -0.1880 -0.2166  0.3165
22379SOL    HW168578   0.321   6.797  12.197  1.3260 -1.1221  0.3781
22379SOL    HW268579   0.210   6.715  12.260 -0.5503  0.7528 -0.3655
22380SOL     OW68580   6.711   4.309   9.611 -0.0511  0.5055 -0.6290
22380SOL    HW168581   6.709   4.245   9.540  0.1185 -1.2332  0.8489
22380SOL    HW268582   6.790   4.360   9.595  1.2449 -1.3426 -0.5114
22381SOL     OW68583   6.006   2.887   6.944  0.1558  0.5285 -0.0035
22381SOL    HW168584   5.933   2.835   6.977 -0.9369  2.2124  0.3902
22381SOL    HW268585   6.054   2.828   6.886 -1.4264 -0.6827 -0.1511
22382SOL     OW68586   1.294   0.606  10.909 -0.0920  0.0673 -0.8794
22382SOL    HW168587   1.208   0.648  10.905  0.2832  0.7801 -2.0385
22382SOL    HW268588   1.332   0.637  10.991 -1.0635 -0.5378 -0.1813
22383SOL     OW68589   6.477   5.951  10.942  0.2543  0.4770 -0.1430
22383SOL    HW168590   6.466   5.856  10.952  1.9713  0.2907  0.3046
22383SOL    HW268591   6.395   5.980  10.903 -0.5086 -1.1188  0.1678
22384SOL     OW68592   0.858   5.388   8.236  0.0553  0.7839 -0.9701
22384SOL    HW168593   0.869   5.452   8.165 -0.0232  1.0743 -0.7266
22384SOL    HW268594   0.840   5.306   8.192  0.0828  0.9474 -1.2895
22385SOL     OW68595   3.659   6.521   2.658  0.0739  0.0634 -0.1531
22385SOL    HW168596   3.726   6.456   2.636 -0.3824 -0.8057  0.9138
22385SOL    HW268597   3.577   6.473   2.652 -0.2274  0.3637  1.2086
22386SOL     OW68598   7.336   5.566  12.313 -0.5227 -0.5038 -0.4177
22386SOL    HW168599   7.322   5.549  12.407 -0.3395  0.4697 -0.2063
22386SOL    HW268600   7.403   5.634  12.311  1.3313 -2.2605 -1.3326
22387SOL     OW68601   7.051   2.452   3.427  0.0984 -0.2164 -0.0067
22387SOL    HW168602   7.096   2.375   3.461 -1.0461 -0.2854  1.4461
22387SOL    HW268603   7.107   2.526   3.454  0.4369 -0.4310 -0.1111
22388SOL     OW68604   1.880   1.606   6.582  0.7343 -0.4150 -0.2292
22388SOL    HW168605   1.963   1.572   6.616 -0.4154 -3.9794 -0.4943
22388SOL    HW268606   1.869   1.562   6.497 -1.5266 -0.3533 -0.0333
22389SOL     OW68607   6.084   5.976   9.075  0.3025 -0.2234 -0.0337
22389SOL    HW168608   6.150   5.970   9.144  0.6626 -2.0498 -0.4744
22389SOL    HW268609   6.002   5.994   9.121  1.1718  3.2831  0.4397
22390SOL     OW68610   4.787   1.749   7.862  0.1896  0.0373 -0.0548
22390SOL    HW168611   4.853   1.702   7.810  0.6733 -0.2332  0.7797
22390SOL    HW268612   4.753   1.683   7.922 -1.1069  0.0888 -0.7035
22391SOL     OW68613   6.771   5.678   6.268 -0.0906  0.1451  0.4533
22391SOL    HW168614   6.729   5.749   6.315  0.8513  1.0990 -0.0931
22391SOL    HW268615   6.842   5.649   6.326 -0.0409  0.1239  0.3824
22392SOL     OW68616   1.546   4.832   1.773 -0.0794  0.0194 -0.1179
22392SOL    HW168617   1.600   4.904   1.740  0.1260 -0.5472 -1.0449
22392SOL    HW268618   1.580   4.816   1.861  0.7111  0.2365 -0.3712
22393SOL     OW68619   2.983   0.484   3.005  0.1650  0.3034  0.4969
22393SOL    HW168620   3.050   0.552   3.010 -0.3021  0.7446  0.8867
22393SOL    HW268621   3.019   0.411   3.055  0.3634  0.5291  0.6832
22394SOL     OW68622   5.884   2.742   2.393 -0.3810 -0.1340  0.2256
22394SOL    HW168623   5.957   2.778   2.344 -0.0245 -1.2501 -0.0970
22394SOL    HW268624   5.901   2.766   2.484  2.2309 -3.1259  0.7314
22395SOL     OW68625   2.716   4.258   3.889  0.0378 -0.1151 -0.0772
22395SOL    HW168626   2.642   4.216   3.846 -0.8379  0.6627  0.6156
22395SOL    HW268627   2.789   4.197   3.879 -1.0722 -1.5808  0.5051
22396SOL     OW68628   0.027   3.054   2.744 -0.4976 -0.7517  0.7479
22396SOL    HW168629  -0.064   3.081   2.758 -0.3244 -0.3261  1.0653
22396SOL    HW268630   0.078   3.135   2.751 -0.2220 -0.7653 -0.7452
22397SOL     OW68631   4.810   0.991   4.021  0.2788 -0.1998  0.2698
22397SOL    HW168632   4.733   0.937   4.002  0.6645 -0.7037  0.1346
22397SOL    HW268633   4.882   0.929   4.029  0.8520  0.3445 -0.5211
22398SOL     OW68634   4.521   1.437  11.439  0.3466  0.4197  0.0625
22398SOL    HW168635   4.523   1.369  11.507 -0.3994  2.8483  2.6827
22398SOL    HW268636   4.610   1.472  11.438  0.5207 -0.0285 -0.7166
22399SOL     OW68637   5.633   0.951   0.021 -0.5230  0.2073 -0.3822
22399SOL    HW168638   5.654   1.028   0.074 -0.8710 -0.1208  0.2507
22399SOL    HW268639   5.719   0.916  -0.004 -0.3342  0.1574  0.2938
22400SOL     OW68640   4.108   1.979   5.875 -0.0630  0.5710 -0.4215
22400SOL    HW168641   4.057   2.030   5.937  0.6186  0.6895  0.0408
22400SOL    HW268642   4.196   2.014   5.880  0.6327 -1.1689  0.5261
22401SOL     OW68643   6.562   2.652  11.041 -0.2763  0.6261  0.4379
22401SOL    HW168644   6.493   2.624  10.981  0.6190  2.3465 -1.5169
22401SOL    HW268645   6.545   2.746  11.055  1.8983  1.2285 -0.5092
22402SOL     OW68646   2.307   3.393   5.745 -0.0817 -0.3639  0.5037
22402SOL    HW168647   2.335   3.392   5.837 -0.4943 -0.7805  0.6271
22402SOL    HW268648   2.389   3.401   5.696  0.1606 -0.3785  0.9003
22403SOL     OW68649   2.492   1.177   8.856  0.3489  0.2954 -0.1576
22403SOL    HW168650   2.561   1.122   8.819 -0.2311  0.0837 -0.9379
22403SOL    HW268651   2.504   1.262   8.813 -0.0637  0.1708 -0.5210
22404SOL     OW68652   2.651   2.349   5.181 -0.1340  0.5973  0.2453
22404SOL    HW168653   2.745   2.339   5.161 -0.0679 -0.0445  0.8413
22404SOL    HW268654   2.647   2.429   5.233  0.2980 -0.1718  1.5034
22405SOL     OW68655   0.421   6.919  10.975 -0.1317  0.0998 -0.7988
22405SOL    HW168656   0.487   6.850  10.964 -0.7699 -0.5597 -0.5768
22405SOL    HW268657   0.338   6.873  10.972 -0.6196  1.0106 -1.6830
22406SOL     OW68658   2.052   0.204  11.806  0.0167 -0.1507  0.0316
22406SOL    HW168659   2.094   0.277  11.761 -0.8068  1.2574  1.4668
22406SOL    HW268660   2.040   0.235  11.896 -2.1204 -1.3239  0.2050
22407SOL     OW68661   7.841   0.007   8.381  0.3186  0.1013  0.3728
22407SOL    HW168662   7.882   0.024   8.466  1.0129 -1.0438  0.2936
22407SOL    HW268663   7.790  -0.073   8.396  2.8949 -1.9550 -1.0002
22408SOL     OW68664   6.543   5.877  12.022 -0.0219  0.3180 -0.3105
22408SOL    HW168665   6.579   5.923  11.946 -1.7944 -0.4691 -1.6991
22408SOL    HW268666   6.604   5.806  12.039  0.3666  0.4681 -1.0595
22409SOL     OW68667   1.734   4.257   7.747 -0.3592  0.0456  0.0618
22409SOL    HW168668   1.705   4.284   7.660 -0.4505  0.4815  0.2267
22409SOL    HW268669   1.659   4.273   7.804 -0.6070 -1.0703  0.0751
22410SOL     OW68670   3.108   2.930   0.865  0.4820 -0.5386 -0.5953
22410SOL    HW168671   3.026   2.957   0.905  0.3662 -1.5176 -0.1568
22410SOL    HW268672   3.119   2.838   0.890  1.9901 -0.2790 -0.1826
22411SOL     OW68673   4.323   1.497   6.335 -0.7573 -0.2643  0.2156
22411SOL    HW168674   4.392   1.515   6.272 -1.6193 -0.0396 -0.7033
22411SOL    HW268675   4.299   1.583   6.370 -0.8373 -0.2902  0.2258
22412SOL     OW68676   6.979   4.674   4.234 -0.0676 -0.6963 -0.2857
22412SOL    HW168677   7.033   4.631   4.167  1.6480  0.2510  0.4118
22412SOL    HW268678   7.015   4.762   4.241 -0.3865 -0.6610  1.6523
22413SOL     OW68679   0.987   6.363   1.496  0.1293 -0.1462  0.3738
22413SOL    HW168680   1.007   6.455   1.510 -0.4098 -0.1951  1.5814
22413SOL    HW268681   0.945   6.360   1.409  0.5760  0.6647  0.1238
22414SOL     OW68682   7.872   7.744   9.190 -0.1069 -0.5320 -0.3373
22414SOL    HW168683   7.875   7.648   9.187 -2.8467 -0.8170  1.8531
22414SOL    HW268684   7.833   7.769   9.106  1.4671 -1.2018 -1.3153
22415SOL     OW68685   7.439   7.206   4.349 -0.2207  0.0843  0.1028
22415SOL    HW168686   7.350   7.187   4.379  0.4077 -4.3516 -0.1497
22415SOL    HW268687   7.486   7.231   4.429 -0.8980 -1.2035  0.9355
22416SOL     OW68688   1.372   4.971   8.313  0.4348  0.2260  0.1938
22416SOL    HW168689   1.359   5.030   8.239 -0.8812 -2.2710 -1.6712
22416SOL    HW268690   1.310   5.002   8.379  1.2316  2.1417  0.1079
22417SOL     OW68691   4.237   6.773   9.422 -0.0534 -0.1330 -0.1244
22417SOL    HW168692   4.286   6.839   9.472  1.5874 -0.7815 -0.8123
22417SOL    HW268693   4.148   6.807   9.419  0.5712  1.6493  0.2531
22418SOL     OW68694   2.379   5.361   0.834 -0.0321 -0.5340 -0.1437
22418SOL    HW168695   2.453   5.344   0.892  1.9673  1.1205 -2.0364
22418SOL    HW268696   2.394   5.303   0.759  0.0838  0.7132 -1.1085
22419SOL     OW68697   0.448   2.457   2.920  0.0933 -0.3688  0.1713
22419SOL    HW168698   0.522   2.449   2.860  0.3868 -2.2474  0.7118
22419SOL    HW268699   0.402   2.535   2.891  1.4798  0.0258 -1.0822
22420SOL     OW68700   2.694   0.602   0.889 -0.0316 -0.1967  0.1136
22420SOL    HW168701   2.747   0.558   0.955 -0.4364  1.0842  1.3425
22420SOL    HW268702   2.665   0.532   0.830 -0.6022 -1.5483  1.9292
22421SOL     OW68703   7.704   3.800   9.163 -0.4442 -0.3709 -0.3480
22421SOL    HW168704   7.697   3.782   9.069  1.7871 -1.8995 -0.2858
22421SOL    HW268705   7.689   3.715   9.205 -0.5532  0.1234  0.6340
22422SOL     OW68706   0.110   2.053   9.489 -0.0195 -0.6668 -0.1362
22422SOL    HW168707   0.078   2.140   9.465 -0.5154 -0.3846  1.4228
22422SOL    HW268708   0.132   2.061   9.582  0.2476 -2.1159 -0.0592
22423SOL     OW68709   0.393   6.457   8.657  0.2372 -0.0753  0.0852
22423SOL    HW168710   0.371   6.477   8.566 -1.0079  0.5499  0.5016
22423SOL    HW268711   0.391   6.361   8.661  0.9952 -0.1365 -0.6944
22424SOL     OW68712   7.826   5.915   1.792  0.5697  0.2606 -0.3792
22424SOL    HW168713   7.892   5.945   1.853  0.6781 -1.3256  0.3479
22424SOL    HW268714   7.838   5.969   1.714  1.3654  1.3569  0.4768
22425SOL     OW68715   5.304   5.841   1.356 -0.5053 -0.3204 -0.4183
22425SOL    HW168716   5.304   5.751   1.323 -0.0646 -1.5051  2.5416
22425SOL    HW268717   5.396   5.866   1.357 -0.5141 -0.3017 -0.0593
22426SOL     OW68718   7.546   7.758   3.062  0.1551  0.2477 -0.3003
22426SOL    HW168719   7.515   7.785   2.975 -3.2425  1.6155  1.1433
22426SOL    HW268720   7.476   7.701   3.095  1.1388  0.1512  1.7354
22427SOL     OW68721   2.061   3.727   4.453  0.1269 -0.5731  0.1160
22427SOL    HW168722   2.100   3.656   4.403 -0.8959 -1.0384 -0.0465
22427SOL    HW268723   2.102   3.807   4.418 -0.2181 -0.9203 -1.1331
22428SOL     OW68724   4.130   5.473   4.080  0.2300  0.0492 -0.3260
22428SOL    HW168725   4.055   5.454   4.024 -0.8632 -1.4502  1.4979
22428SOL    HW268726   4.206   5.441   4.030 -0.4083  0.8518 -1.8659
22429SOL     OW68727   7.012   4.676  11.775  0.6738 -0.2256  0.1155
22429SOL    HW168728   7.002   4.584  11.749  0.5932 -0.3879  0.7187
22429SOL    HW268729   7.105   4.695  11.758  0.3931 -0.0046 -1.3101
22430SOL     OW68730   7.059   3.230   7.165  0.0135  0.0635  0.6342
22430SOL    HW168731   7.070   3.136   7.158  2.6674  0.3880 -0.8633
22430SOL    HW268732   7.020   3.256   7.082 -0.8961  0.2940  1.1209
22431SOL     OW68733   0.530   1.935   4.022 -0.1868  0.0004  0.6691
22431SOL    HW168734   0.500   1.848   3.998  0.8698  0.3425 -2.3265
22431SOL    HW268735   0.584   1.921   4.100  1.5074 -2.3805 -0.8026
22432SOL     OW68736   7.080   6.283   2.736  0.2459  0.3601  0.3050
22432SOL    HW168737   7.122   6.210   2.781  0.6330 -0.1094 -0.7866
22432SOL    HW268738   7.066   6.349   2.804  0.5149 -0.4593  1.1619
22433SOL     OW68739   1.245   1.920   9.501  0.2436 -0.1838 -0.3874
22433SOL    HW168740   1.316   1.968   9.460  0.2934  0.4076  0.3796
22433SOL    HW268741   1.233   1.843   9.445 -1.6010  1.9336 -3.1915
22434SOL     OW68742   5.648   4.890   5.430  0.4095  0.0403 -0.8502
22434SOL    HW168743   5.668   4.963   5.371  2.4900  1.0135  0.9110
22434SOL    HW268744   5.702   4.818   5.399  0.1532 -0.0066 -1.1866
22435SOL     OW68745   4.207   6.048   5.388 -0.2681  1.2609  0.1036
22435SOL    HW168746   4.179   6.038   5.479 -2.5825 -1.3851 -0.7451
22435SOL    HW268747   4.283   5.991   5.380 -1.9808 -1.1217 -0.2463
22436SOL     OW68748   6.664   6.223  12.124 -0.2702  0.0553 -0.3640
22436SOL    HW168749   6.669   6.194  12.215  1.4917  0.2912 -0.3534
22436SOL    HW268750   6.594   6.288  12.124 -1.0529 -0.7488  0.5797
22437SOL     OW68751   4.667   4.693  11.983 -0.3988 -0.3081  0.3447
22437SOL    HW168752   4.614   4.759  12.029 -0.1196 -0.3610  0.7569
22437SOL    HW268753   4.725   4.659  12.051  0.3812 -0.0227 -0.1672
22438SOL     OW68754   3.734   6.837   0.368  0.5185 -0.3710  0.0351
22438SOL    HW168755   3.650   6.880   0.353 -0.3214 -1.2298  1.8970
22438SOL    HW268756   3.711   6.745   0.385  1.8532 -0.6640  0.3966
22439SOL     OW68757   5.263   6.180   8.730  0.2172 -0.0783 -0.2756
22439SOL    HW168758   5.176   6.191   8.769  0.3258 -0.4708  0.0875
22439SOL    HW268759   5.294   6.269   8.714 -1.2082  0.0738 -2.5750
22440SOL     OW68760   6.769   5.556   8.266  0.1273 -0.8171 -0.0084
22440SOL    HW168761   6.781   5.629   8.206  0.4597  0.4487  1.5349
22440SOL    HW268762   6.713   5.495   8.219  0.7462 -0.0918 -1.7572
22441SOL     OW68763   4.209   0.136   0.337 -0.2504  0.3355 -0.1755
22441SOL    HW168764   4.196   0.084   0.416  1.8596 -0.5631 -0.3550
22441SOL    HW268765   4.133   0.116   0.282 -2.0057  1.3309  1.7414
22442SOL     OW68766   4.387   4.867   1.794  0.8607  0.3929  0.1040
22442SOL    HW168767   4.320   4.863   1.726  0.7965 -0.1672  0.1972
22442SOL    HW268768   4.469   4.852   1.747  0.8799  0.6375  0.0570
22443SOL     OW68769   0.239   0.753  11.717  0.1701 -0.6759 -0.0238
22443SOL    HW168770   0.293   0.790  11.786  0.6209  0.0941 -0.7766
22443SOL    HW268771   0.297   0.746  11.641 -0.3856 -1.2491 -0.4123
22444SOL     OW68772   1.276   2.592   1.621  0.2625 -0.5936  0.6451
22444SOL    HW168773   1.253   2.568   1.711  1.0127 -1.1004  0.7015
22444SOL    HW268774   1.359   2.638   1.629 -0.8850  1.6779  0.4911
22445SOL     OW68775   1.685   4.638  11.118 -0.4105 -0.0481 -0.1864
22445SOL    HW168776   1.641   4.714  11.156  0.6837  0.1094  0.8061
22445SOL    HW268777   1.750   4.675  11.059 -0.0374 -0.2132  0.1168
22446SOL     OW68778   6.022   4.080   3.603  0.0092  0.2378  0.0296
22446SOL    HW168779   5.991   4.056   3.690  1.4769 -0.2262  0.4623
22446SOL    HW268780   6.015   4.175   3.599 -2.2079  0.1095 -0.2324
22447SOL     OW68781   4.382   6.485   1.218 -0.1714 -0.2449 -0.2630
22447SOL    HW168782   4.327   6.407   1.210  0.7898 -0.8006 -1.9819
22447SOL    HW268783   4.333   6.543   1.276 -3.2615 -0.1472 -2.7239
22448SOL     OW68784   5.132   3.444   8.503  0.1113  0.2973 -0.2402
22448SOL    HW168785   5.096   3.424   8.590  1.2326  0.7206  0.3350
22448SOL    HW268786   5.141   3.358   8.461  1.5259 -0.1367  0.8709
22449SOL     OW68787   3.806   1.468   5.262  0.3761  0.2186  0.1407
22449SOL    HW168788   3.782   1.397   5.322  1.9773 -0.1021  0.4519
22449SOL    HW268789   3.899   1.453   5.244 -0.0563  0.2895 -2.4855
22450SOL     OW68790   3.533   6.984  10.210 -0.2481 -0.6932  0.0532
22450SOL    HW168791   3.562   7.045  10.142 -0.4895 -0.2371  0.3489
22450SOL    HW268792   3.437   6.986  10.205 -0.2489 -1.8983 -0.6654
22451SOL     OW68793   0.911   4.468   9.739 -0.2628 -0.1489  0.3178
22451SOL    HW168794   0.922   4.531   9.667 -2.5983  1.1955  1.0373
22451SOL    HW268795   0.943   4.386   9.703 -0.5930  0.6551 -2.0181
22452SOL     OW68796   0.626   2.322   4.583  0.0522 -0.5268  0.6435
22452SOL    HW168797   0.602   2.275   4.663  0.0568  0.0899  1.0095
22452SOL    HW268798   0.638   2.413   4.611  2.3870 -0.6918  0.4210
22453SOL     OW68799   0.282   7.687   3.101 -0.1587  0.5742  0.3493
22453SOL    HW168800   0.375   7.670   3.085 -0.4016  0.6629 -1.3407
22453SOL    HW268801   0.268   7.662   3.193  1.3282 -0.2899  0.3656
22454SOL     OW68802   3.286   4.640   1.301 -0.0467 -0.6677 -0.2028
22454SOL    HW168803   3.268   4.585   1.378  0.5536 -0.2662  0.2264
22454SOL    HW268804   3.351   4.590   1.251  1.1965  0.0479  0.6516
22455SOL     OW68805   1.380   7.535   8.063 -0.4459 -0.1520 -0.7354
22455SOL    HW168806   1.342   7.623   8.061 -1.2944 -0.4911 -0.0579
22455SOL    HW268807   1.435   7.531   7.984  0.0899  1.1893 -0.4568
22456SOL     OW68808   3.519   5.557  10.996 -0.4743  0.0026 -0.3687
22456SOL    HW168809   3.424   5.566  11.004 -0.7431 -1.4695 -1.5256
22456SOL    HW268810   3.532   5.470  10.959  1.3220  0.3462 -0.6349
22457SOL     OW68811   5.515   7.449   6.130  0.4426  0.0474 -0.1983
22457SOL    HW168812   5.460   7.524   6.112 -0.6520 -0.8570 -0.7108
22457SOL    HW268813   5.456   7.374   6.130  1.3453 -0.7317  1.2042
22458SOL     OW68814   0.166   0.934   8.959  0.2493 -0.1019 -0.2877
22458SOL    HW168815   0.073   0.926   8.979  0.5118  0.9726  1.6652
22458SOL    HW268816   0.173   1.014   8.907  0.3400  1.6907  2.3033
22459SOL     OW68817   1.362   2.865   5.430 -0.1163 -0.5829 -0.0555
22459SOL    HW168818   1.316   2.837   5.509 -0.1691 -0.7336 -0.1392
22459SOL    HW268819   1.454   2.848   5.449  0.0093  0.5860  0.4739
22460SOL     OW68820   2.116   5.025   0.691  0.3026 -0.2914 -0.4749
22460SOL    HW168821   2.142   5.105   0.738  0.0144  1.0869 -2.5577
22460SOL    HW268822   2.022   5.017   0.708  0.6375 -1.2028  1.1375
22461SOL     OW68823   7.832   5.851   1.194 -0.3523  0.2034  0.9812
22461SOL    HW168824   7.875   5.868   1.277  0.5740 -2.8239  1.2605
22461SOL    HW268825   7.902   5.857   1.129 -0.5450  0.1592  0.7691
22462SOL     OW68826   5.365   3.490  11.369 -0.1722  0.2458  0.1150
22462SOL    HW168827   5.316   3.410  11.386  2.0593 -1.1460  0.4027
22462SOL    HW268828   5.396   3.518  11.456  2.0622 -0.6852 -0.3014
22463SOL     OW68829   0.895   1.375   5.876  0.3960  0.5592  0.2416
22463SOL    HW168830   0.980   1.363   5.833  1.0190  0.2385  1.5134
22463SOL    HW268831   0.849   1.438   5.821  1.6218  1.0668 -0.2365
22464SOL     OW68832   7.071   5.092   3.944 -0.0026  0.0394 -0.0182
22464SOL    HW168833   6.975   5.088   3.951 -0.0630 -1.0515 -1.2073
22464SOL    HW268834   7.091   5.045   3.864  1.5975 -0.3740  0.5996
22465SOL     OW68835   7.375   3.137  11.645 -0.2843 -0.3399  1.1143
22465SOL    HW168836   7.348   3.124  11.554  0.6409 -2.4254  1.0677
22465SOL    HW268837   7.463   3.174  11.639  0.1815 -1.3997  1.1015
22466SOL     OW68838   4.120   3.265   7.572 -0.5667 -0.2347  0.1149
22466SOL    HW168839   4.157   3.246   7.486 -1.1558  1.0560 -0.4549
22466SOL    HW268840   4.165   3.205   7.631 -0.3902 -1.3767 -1.1273
22467SOL     OW68841   1.760   3.876   1.097  0.1392 -0.0099 -0.0851
22467SOL    HW168842   1.810   3.798   1.073 -2.1573 -2.0146  1.1872
22467SOL    HW268843   1.805   3.911   1.174  1.4970  0.2938 -0.9844
22468SOL     OW68844   1.353   6.543   3.971  0.1581 -0.2077 -0.2398
22468SOL    HW168845   1.358   6.593   4.052  0.0118 -0.0517 -0.3270
22468SOL    HW268846   1.440   6.552   3.931  0.1655 -0.1150 -0.2014
22469SOL     OW68847   3.153   6.937   9.947  0.7365 -0.2972  0.0603
22469SOL    HW168848   3.151   6.983  10.030  0.2118  2.5886 -1.4248
22469SOL    HW268849   3.246   6.933   9.923  0.7557  0.3792  0.0143
22470SOL     OW68850   4.926   1.522   4.117 -0.2790 -0.1178 -0.0869
22470SOL    HW168851   5.012   1.558   4.095 -0.1421  0.7455  1.7252
22470SOL    HW268852   4.868   1.598   4.121 -0.9619 -0.5988 -0.4710
22471SOL     OW68853   5.529   1.361  11.041  0.1971 -0.1044 -0.1826
22471SOL    HW168854   5.604   1.372  10.983 -0.5886 -0.9140 -1.4097
22471SOL    HW268855   5.521   1.266  11.052 -1.5508 -0.1438 -1.3659
22472SOL     OW68856   4.840   4.790   7.504  0.2158  0.6403  0.2590
22472SOL    HW168857   4.856   4.876   7.465  0.9057  1.1066  1.5381
22472SOL    HW268858   4.759   4.801   7.554  1.0655  0.9507  1.5810
22473SOL     OW68859   2.411   3.487   2.795  0.2161  0.1085  0.5932
22473SOL    HW168860   2.425   3.397   2.764  0.2147  0.0185  0.8496
22473SOL    HW268861   2.389   3.477   2.888  0.8558  0.4192  0.7837
22474SOL     OW68862   6.009   4.403   0.784 -0.0322 -0.1577  0.3798
22474SOL    HW168863   6.020   4.310   0.766 -0.0144  0.3608 -2.8500
22474SOL    HW268864   6.098   4.438   0.788 -0.0455  0.0646 -0.8547
22475SOL     OW68865   1.235   6.007   2.141  0.2430  0.0114 -0.2676
22475SOL    HW168866   1.275   6.092   2.158  1.2950 -0.3286 -0.8986
22475SOL    HW268867   1.260   5.987   2.050  0.0221 -0.9652 -0.1241
22476SOL     OW68868   4.561   0.889   2.850  0.1186 -0.0144 -0.3403
22476SOL    HW168869   4.604   0.869   2.933 -2.4401 -0.0611  1.0754
22476SOL    HW268870   4.567   0.808   2.799  0.4546 -0.4488  0.3834
22477SOL     OW68871   6.935   4.949   8.369 -0.7063  0.1194  0.0458
22477SOL    HW168872   6.899   4.928   8.455 -1.3152 -0.8044 -0.4161
22477SOL    HW268873   6.882   5.022   8.337 -1.4974 -0.5351 -0.1774
22478SOL     OW68874   0.546   0.025   9.242  0.1672  0.8868 -0.1455
22478SOL    HW168875   0.608   0.040   9.313 -0.3681  1.0271  0.2949
22478SOL    HW268876   0.462   0.007   9.285  0.1674 -0.6201 -0.6987
22479SOL     OW68877   0.969   5.326   0.642 -0.4025 -0.5442 -0.0629
22479SOL    HW168878   0.953   5.408   0.689 -1.4915  0.0931 -1.4696
22479SOL    HW268879   0.986   5.353   0.552  0.5959 -1.8000 -0.2812
22480SOL     OW68880   5.958   3.080   6.569 -0.3988 -0.2539  0.0444
22480SOL    HW168881   6.039   3.070   6.519 -1.5769 -0.8834 -1.8228
22480SOL    HW268882   5.975   3.154   6.627  1.0921  0.4405 -1.2010
22481SOL     OW68883   5.944   2.602  10.607  0.2201  0.8668 -0.7288
22481SOL    HW168884   5.973   2.642  10.689 -0.0859  0.3941 -0.3886
22481SOL    HW268885   5.855   2.634  10.594 -0.2236 -0.1165 -0.1778
22482SOL     OW68886   7.428   5.490   4.108 -0.1968 -0.0938 -0.1822
22482SOL    HW168887   7.377   5.458   4.034 -0.4097  0.6973 -0.3869
22482SOL    HW268888   7.518   5.462   4.089 -0.5456 -1.6214  0.2538
22483SOL     OW68889   2.875   7.388   1.935 -0.3709  0.3436  0.2758
22483SOL    HW168890   2.839   7.468   1.897 -2.1028  0.4366  1.9254
22483SOL    HW268891   2.806   7.356   1.994  2.0458  0.2119  3.3075
22484SOL     OW68892   7.152   5.679   4.823  1.0174  0.4254 -0.3302
22484SOL    HW168893   7.098   5.601   4.811 -1.4062  1.8593  0.6014
22484SOL    HW268894   7.213   5.655   4.893 -0.4415 -0.3115  0.7344
22485SOL     OW68895   3.198   2.091   1.082  0.3175  0.0858  0.6862
22485SOL    HW168896   3.202   2.029   1.155 -0.9041  0.7696  1.3708
22485SOL    HW268897   3.279   2.142   1.089 -0.1651  0.7139  2.1165
22486SOL     OW68898   6.005   4.859   0.701  0.1302  0.3993 -0.5295
22486SOL    HW168899   6.097   4.855   0.726 -0.3680 -0.3133  1.3309
22486SOL    HW268900   5.968   4.776   0.730 -1.5720  1.5593  0.8253
22487SOL     OW68901   1.063   5.499   8.367  0.4805 -0.0050 -0.6606
22487SOL    HW168902   1.001   5.469   8.301  2.1942 -2.2018 -1.4035
22487SOL    HW268903   1.065   5.429   8.432  0.3564  1.1799  0.6612
22488SOL     OW68904   0.960   4.385   2.083 -0.0241 -0.3607  0.4001
22488SOL    HW168905   1.002   4.336   2.154  1.8197  1.2214  0.4899
22488SOL    HW268906   0.901   4.446   2.128  0.6832  0.2169  0.5687
22489SOL     OW68907   6.221   1.904   7.734 -0.0790  0.3453 -0.4840
22489SOL    HW168908   6.290   1.853   7.693  1.9174  1.6375  1.0751
22489SOL    HW268909   6.192   1.849   7.808 -1.0166 -0.3494 -1.3444
22490SOL     OW68910   0.808   4.729   3.470  0.1588 -0.4214 -0.1102
22490SOL    HW168911   0.867   4.659   3.498  1.0180  0.1288 -0.4950
22490SOL    HW268912   0.767   4.759   3.551 -0.7094 -1.7715 -0.0101
22491SOL     OW68913   5.486   7.757   0.663  0.0356 -0.2388  0.5923
22491SOL    HW168914   5.392   7.775   0.668  0.6023  3.5136  1.1039
22491SOL    HW268915   5.494   7.664   0.682 -3.6247 -1.0020 -0.7199
22492SOL     OW68916   7.557   3.912  12.121 -0.0425 -0.3353  0.0087
22492SOL    HW168917   7.500   3.836  12.108 -1.3256  0.8767 -2.1385
22492SOL    HW268918   7.512   3.966  12.186  0.2669 -0.8376  0.6464
22493SOL     OW68919   7.926   4.394   6.471  0.1826  0.2351  0.2412
22493SOL    HW168920   7.903   4.456   6.402 -0.3308  0.1853  0.3656
22493SOL    HW268921   7.964   4.449   6.540 -0.5335  0.4592  0.4715
22494SOL     OW68922   1.104   2.688   0.775  0.1186  0.2448  0.0729
22494SOL    HW168923   1.052   2.729   0.706  2.7289  2.6968 -0.6402
22494SOL    HW268924   1.064   2.717   0.857 -0.3307  1.0684 -0.4280
22495SOL     OW68925   3.386   7.154   9.361 -0.6882  0.0898 -0.1896
22495SOL    HW168926   3.459   7.093   9.362 -1.6639 -1.1171  0.5797
22495SOL    HW268927   3.426   7.241   9.360  0.7289 -0.5454 -0.5493
22496SOL     OW68928   3.654   6.119   7.254  0.2097 -0.5256  0.5246
22496SOL    HW168929   3.578   6.141   7.200 -0.5223 -0.0301  1.6945
22496SOL    HW268930   3.629   6.037   7.298 -0.0277  0.0787  1.5558
22497SOL     OW68931   1.874   6.895   9.140 -0.3686 -0.5822  0.0568
22497SOL    HW168932   1.840   6.929   9.223 -0.8557 -1.1863  0.1084
22497SOL    HW268933   1.800   6.901   9.080 -0.2494 -0.9090 -0.1217
22498SOL     OW68934   3.993   2.782  10.695  0.3362  0.3710 -0.5156
22498SOL    HW168935   3.913   2.763  10.645 -0.4016  0.4751  0.5925
22498SOL    HW268936   4.063   2.772  10.631 -0.5463  0.1654 -1.4961
22499SOL     OW68937   7.471   1.097   8.210  0.0802  0.3023  0.1478
22499SOL    HW168938   7.384   1.056   8.211 -0.1739  0.8264  1.6981
22499SOL    HW268939   7.530   1.027   8.181 -0.6829 -0.4295  0.3172
22500SOL     OW68940   6.285   1.944   7.292 -0.0010  0.6870  0.4156
22500SOL    HW168941   6.250   1.975   7.375  1.3891  0.6893  1.0323
22500SOL    HW268942   6.363   1.999   7.277  0.8789 -0.6104  0.0939
22501SOL     OW68943   3.563   5.658  11.763 -0.3702  0.5885  0.4233
22501SOL    HW168944   3.552   5.569  11.730 -1.2168  0.6085  0.6095
22501SOL    HW268945   3.587   5.710  11.686 -1.2982  0.4503  0.0280
22502SOL     OW68946   6.166   6.780   7.283 -0.3606 -0.1653 -0.1363
22502SOL    HW168947   6.107   6.802   7.211 -1.4741  0.1983  0.8601
22502SOL    HW268948   6.245   6.831   7.266 -2.0081  2.9936  0.8962
22503SOL     OW68949   7.008   6.441   4.482 -0.1285 -0.5478  0.3358
22503SOL    HW168950   7.081   6.392   4.519  0.4322 -0.1693 -0.2504
22503SOL    HW268951   7.046   6.524   4.453 -0.7726 -0.3670 -0.0304
22504SOL     OW68952   5.166   3.809   0.769  0.2878 -0.3962 -0.4535
22504SOL    HW168953   5.243   3.865   0.760 -0.0391  0.6975  2.3707
22504SOL    HW268954   5.092   3.869   0.759 -0.0972 -0.6684  0.5999
22505SOL     OW68955   7.158   7.671   3.942  0.2364  0.1359  0.2881
22505SOL    HW168956   7.186   7.762   3.952  1.0981 -0.1163  0.2323
22505SOL    HW268957   7.229   7.629   3.894  0.3635 -0.8235  1.2848
22506SOL     OW68958   4.891   3.180   0.011  0.3061 -0.2802  0.4688
22506SOL    HW168959   4.869   3.168  -0.081 -0.4411 -0.1411  0.6155
22506SOL    HW268960   4.925   3.096   0.040 -1.4903 -0.9960  0.6020
22507SOL     OW68961   3.530   0.343   2.506  0.1463 -0.0466  0.1025
22507SOL    HW168962   3.485   0.379   2.430  1.1506 -0.2692 -0.6156
22507SOL    HW268963   3.613   0.309   2.471  0.5682 -0.2617  1.2747
22508SOL     OW68964   0.823   1.810   3.126  0.2549  0.0693  0.3548
22508SOL    HW168965   0.768   1.837   3.199  0.8262  1.0593  0.4371
22508SOL    HW268966   0.817   1.715   3.125 -0.7305  0.1141  0.9207
22509SOL     OW68967   6.654   6.755   6.666  0.3303 -0.0499 -0.2107
22509SOL    HW168968   6.644   6.760   6.761 -0.5015 -1.4484 -0.1834
22509SOL    HW268969   6.570   6.784   6.631  0.3378 -0.3462 -0.4805
22510SOL     OW68970   3.518   4.334   1.826 -0.3322  0.4334  0.4544
22510SOL    HW168971   3.446   4.311   1.767 -0.3231 -1.7382  1.1874
22510SOL    HW268972   3.502   4.281   1.904  0.8641  1.5852  1.5243
22511SOL     OW68973   0.694   2.571   4.729  0.4497  0.4945 -0.0203
22511SOL    HW168974   0.752   2.646   4.716 -0.1695  0.9575 -0.1542
22511SOL    HW268975   0.633   2.600   4.797  1.8980 -0.8763  2.0106
22512SOL     OW68976   2.419   1.601  11.114  0.3975 -0.0555  0.1132
22512SOL    HW168977   2.448   1.651  11.190  0.6790 -0.7670  0.4780
22512SOL    HW268978   2.470   1.636  11.041  0.9498 -0.1510  0.4533
22513SOL     OW68979   5.743   0.334   7.606  0.0596  0.2142  0.3302
22513SOL    HW168980   5.754   0.240   7.596 -0.1958  0.2785 -0.7095
22513SOL    HW268981   5.659   0.345   7.650 -0.0018 -0.0428  0.2767
22514SOL     OW68982   6.104   0.406   2.755  0.0746  0.4587  0.4271
22514SOL    HW168983   6.041   0.452   2.700  1.7851  0.5268 -1.5917
22514SOL    HW268984   6.158   0.476   2.792  0.9145  0.2512 -0.3843
22515SOL     OW68985   6.619   4.758   5.681  0.1618 -0.1133  0.3738
22515SOL    HW168986   6.623   4.850   5.707  0.2823 -0.4715  1.6870
22515SOL    HW268987   6.695   4.746   5.624 -0.9275  1.0573 -1.4301
22516SOL     OW68988   1.062   7.114   6.094  0.0015 -0.1324  0.7074
22516SOL    HW168989   1.139   7.062   6.118  0.3505  1.1180  2.5340
22516SOL    HW268990   0.988   7.057   6.113  0.3953 -0.1632  2.3276
22517SOL     OW68991   6.937   2.955   6.079 -0.6516  0.0128  0.0489
22517SOL    HW168992   6.945   2.861   6.095 -0.7132 -0.5184 -2.4961
22517SOL    HW268993   6.852   2.979   6.115 -2.0986 -1.6640 -2.0096
22518SOL     OW68994   5.632   1.086   3.636 -0.0355  0.2879 -0.0145
22518SOL    HW168995   5.704   1.145   3.616  0.5401 -1.0426 -2.1729
22518SOL    HW268996   5.656   1.046   3.720  0.6704  1.4213  0.3401
22519SOL     OW68997   6.747   3.092  11.418  0.1609 -0.2585  0.1730
22519SOL    HW168998   6.721   3.164  11.475  0.9759  0.3487 -0.2090
22519SOL    HW268999   6.724   3.121  11.330 -0.1012 -0.7441  0.0734
22520SOL     OW69000   3.376   7.165   3.780  0.1742  0.1286  0.0018
22520SOL    HW169001   3.352   7.166   3.687 -0.3973 -2.5478  0.0490
22520SOL    HW269002   3.296   7.190   3.826 -0.3921 -1.3051 -0.1559
22521SOL     OW69003   5.698   5.445   0.852 -0.2006 -0.0327 -0.4898
22521SOL    HW169004   5.778   5.496   0.862 -0.0361 -0.0024 -1.7402
22521SOL    HW269005   5.658   5.479   0.771 -0.2124 -1.6858 -1.2181
22522SOL     OW69006   0.238   5.383   4.594 -0.6686 -0.2706  0.5038
22522SOL    HW169007   0.310   5.419   4.541 -0.1945 -1.4834  0.2752
22522SOL    HW269008   0.278   5.366   4.679 -0.7919 -0.5476  0.5080
22523SOL     OW69009   4.882   5.088   1.046 -0.2369 -0.0917 -0.1995
22523SOL    HW169010   4.829   5.038   0.983 -1.9342 -0.2888  1.3032
22523SOL    HW269011   4.866   5.044   1.130  1.9298  0.1906  0.4155
22524SOL     OW69012   0.343   0.628   5.905 -0.1677 -0.8073 -0.1367
22524SOL    HW169013   0.361   0.700   5.965 -2.1351 -0.3875  0.0360
22524SOL    HW269014   0.337   0.551   5.962 -0.7538 -0.6280  0.0523
22525SOL     OW69015   1.514   4.976   2.440  0.2318 -0.0109  0.0437
22525SOL    HW169016   1.527   5.069   2.459 -0.8420  0.1745 -0.0679
22525SOL    HW269017   1.495   4.972   2.346 -0.2874 -0.2699  0.1515
22526SOL     OW69018   7.865   4.889   5.706  0.4172  0.7602  0.2947
22526SOL    HW169019   7.936   4.828   5.683 -0.3096  0.3920 -1.1263
22526SOL    HW269020   7.897   4.974   5.675 -0.1489  0.4235 -1.3302
22527SOL     OW69021   2.496   0.872   7.670  0.0348  0.2650  0.2224
22527SOL    HW169022   2.569   0.907   7.620 -0.2503 -0.1862 -0.5200
22527SOL    HW269023   2.442   0.826   7.606 -1.5643  1.6421  0.5095
22528SOL     OW69024   5.252   0.901   4.147  0.5834  0.4537  0.2147
22528SOL    HW169025   5.164   0.870   4.170  0.8002 -0.0513  0.3904
22528SOL    HW269026   5.272   0.856   4.064  0.3792  1.1515 -0.2182
22529SOL     OW69027   1.753   3.621   5.383 -0.0478  0.4498  0.0367
22529SOL    HW169028   1.688   3.556   5.410  1.1679 -0.9536 -0.3044
22529SOL    HW269029   1.702   3.700   5.366 -1.3724  0.1135  2.1131
22530SOL     OW69030   7.901   0.144  10.354  0.8110 -0.5926 -0.3591
22530SOL    HW169031   7.952   0.116  10.430  1.2304 -0.3915 -0.5621
22530SOL    HW269032   7.822   0.183  10.392  1.3712  0.2184  0.0116
22531SOL     OW69033   5.674   1.544   0.227  0.3396 -0.0408 -0.0603
22531SOL    HW169034   5.650   1.627   0.186 -0.6388  0.1742  0.8943
22531SOL    HW269035   5.592   1.494   0.227  1.2151 -1.6279 -1.9476
22532SOL     OW69036   2.306   4.323  10.771  0.9280  0.3754 -0.0259
22532SOL    HW169037   2.382   4.267  10.758  0.1232 -0.7201 -0.1470
22532SOL    HW269038   2.252   4.308  10.693  0.4498  0.9111  0.1986
22533SOL     OW69039   2.447   0.736   9.385 -0.2819 -0.0658  0.1440
22533SOL    HW169040   2.539   0.737   9.408  0.1125  1.7040 -1.2499
22533SOL    HW269041   2.436   0.656   9.333  0.3278 -0.5467  0.7394
22534SOL     OW69042   5.912   0.480   9.272  0.0865  0.6554  0.4200
22534SOL    HW169043   5.938   0.494   9.180 -0.3498  1.3752  0.3998
22534SOL    HW269044   5.941   0.391   9.291  0.5513  0.6397 -0.2929
22535SOL     OW69045   7.511   4.011   6.917  0.0383 -0.2484 -0.3443
22535SOL    HW169046   7.456   4.063   6.859  1.5352  0.8017 -0.8992
22535SOL    HW269047   7.492   4.044   7.004  0.5626  0.8698 -0.6401
22536SOL     OW69048   1.516   7.643   9.847 -0.5761 -0.3405 -0.4829
22536SOL    HW169049   1.473   7.727   9.833  0.5476 -0.0110 -2.1002
22536SOL    HW269050   1.464   7.602   9.917 -1.7152  1.2674 -0.3267
22537SOL     OW69051   1.418   0.414   2.736  0.1257 -0.0857  0.2896
22537SOL    HW169052   1.330   0.452   2.738 -0.4043 -1.2210 -0.2604
22537SOL    HW269053   1.413   0.346   2.668  0.2994 -2.6792  2.6571
22538SOL     OW69054   5.052   1.562   8.572 -0.0578 -0.2748  0.0107
22538SOL    HW169055   5.097   1.597   8.649 -0.9121 -1.4624  1.0793
22538SOL    HW269056   4.973   1.614   8.564 -1.0767 -1.5478  1.3000
22539SOL     OW69057   3.497   7.609   6.661  0.2038 -0.0513  0.3844
22539SOL    HW169058   3.485   7.646   6.748  0.0195  1.7154 -0.3527
22539SOL    HW269059   3.412   7.621   6.618  0.4644 -0.3945 -0.2334
22540SOL     OW69060   3.642   4.274   2.984 -0.3979  0.2475  0.3422
22540SOL    HW169061   3.719   4.218   2.996 -0.3713  0.3414  0.6148
22540SOL    HW269062   3.678   4.360   2.963 -0.4458 -0.0485 -1.0828
22541SOL     OW69063   6.085   6.776   2.793  0.0487  0.5325  0.0719
22541SOL    HW169064   6.011   6.794   2.735  0.5505  0.0873 -0.7319
22541SOL    HW269065   6.113   6.688   2.769  0.7756  0.6571  0.4313
22542SOL     OW69066   0.752   7.591   2.550  0.3126  0.2454 -0.0677
22542SOL    HW169067   0.701   7.646   2.609  0.3701  0.4307 -0.1910
22542SOL    HW269068   0.773   7.648   2.476  1.2276  0.3522  0.2667
22543SOL     OW69069   4.409   1.223   4.501  0.0756 -0.3705 -0.5082
22543SOL    HW169070   4.489   1.237   4.551  0.5217 -0.1167 -1.2765
22543SOL    HW269071   4.421   1.138   4.458 -0.5923 -0.9069  0.3402
22544SOL     OW69072   2.817   4.589   5.776 -0.5401 -0.1738 -0.1751
22544SOL    HW169073   2.828   4.658   5.842 -1.2648  1.0225 -1.2561
22544SOL    HW269074   2.776   4.518   5.824  0.1835  0.1512  0.9660
22545SOL     OW69075   0.891   1.618   3.438 -0.2055  0.4294  0.5395
22545SOL    HW169076   0.927   1.557   3.503 -2.6170  0.3771  1.9407
22545SOL    HW269077   0.846   1.561   3.375  2.3248  0.4574 -1.4694
22546SOL     OW69078   2.443   0.474   9.336  0.1827  0.1081  0.0899
22546SOL    HW169079   2.397   0.445   9.415 -0.2715 -0.5228 -0.3948
22546SOL    HW269080   2.527   0.430   9.340  0.0456 -0.1586  0.0776
22547SOL     OW69081   1.783   2.682   8.864  0.0071  0.5656  0.5817
22547SOL    HW169082   1.694   2.681   8.899 -0.3123  1.7369 -0.1500
22547SOL    HW269083   1.828   2.749   8.915  0.5034 -0.0464  0.9753
22548SOL     OW69084   4.163   5.603   3.342 -0.1489 -0.0426 -0.1264
22548SOL    HW169085   4.257   5.622   3.342 -0.0661 -0.4219  0.2441
22548SOL    HW269086   4.124   5.672   3.289  0.2154  0.7463  0.6127
22549SOL     OW69087   7.109   7.874   2.200 -0.1649  0.2154 -0.0064
22549SOL    HW169088   7.197   7.838   2.215 -0.3629 -0.0914  0.4579
22549SOL    HW269089   7.111   7.906   2.110  0.2353 -0.3400 -0.2007
22550SOL     OW69090   4.457   1.864   7.856 -0.0684 -0.5621  0.5865
22550SOL    HW169091   4.521   1.883   7.788 -1.6573 -0.6717 -1.0391
22550SOL    HW269092   4.408   1.789   7.823 -2.8214  1.1639  0.3709
22551SOL     OW69093   7.883   1.051   7.248  0.2474 -0.5937  0.2839
22551SOL    HW169094   7.972   1.083   7.237 -0.7291  1.7006 -2.3517
22551SOL    HW269095   7.859   1.075   7.337  1.5056  0.9484  0.2445
22552SOL     OW69096   3.078   1.744   7.190  0.1862  0.0305  0.1009
22552SOL    HW169097   3.011   1.679   7.171 -0.0191  0.2235  0.1630
22552SOL    HW269098   3.141   1.736   7.118  0.6761 -0.9099  0.5967
22553SOL     OW69099   1.325   7.466   1.027 -0.5053  0.1543  0.2067
22553SOL    HW169100   1.351   7.529   0.960 -0.6725 -0.4852 -0.4795
22553SOL    HW269101   1.404   7.415   1.044 -1.0701 -1.3270 -1.3623
22554SOL     OW69102   1.615   1.496   3.492 -0.0898  0.1203 -0.0492
22554SOL    HW169103   1.624   1.504   3.397 -0.4136 -0.1898 -0.1080
22554SOL    HW269104   1.533   1.448   3.504 -0.2915  0.5776  0.4004
22555SOL     OW69105   1.648   7.197   9.084 -0.3601  0.2578  0.1313
22555SOL    HW169106   1.563   7.233   9.061 -0.4525 -0.5691 -0.9091
22555SOL    HW269107   1.654   7.116   9.033  1.2028  0.5027 -0.1265
22556SOL     OW69108   4.877   1.848  11.835  0.6348 -0.0163  0.1731
22556SOL    HW169109   4.797   1.818  11.791  0.4879 -0.7673  0.9356
22556SOL    HW269110   4.846   1.906  11.905  0.8773  1.3195 -0.7864
22557SOL     OW69111   4.893   5.394   8.242  0.1841 -0.1570 -0.0480
22557SOL    HW169112   4.860   5.334   8.309  0.6929  0.0816  0.4277
22557SOL    HW269113   4.842   5.475   8.255 -1.8748 -1.0486 -1.9313
22558SOL     OW69114   1.228   6.585   0.199  0.5794  0.2304  0.7372
22558SOL    HW169115   1.163   6.592   0.129  1.1829 -0.9419  0.0191
22558SOL    HW269116   1.180   6.548   0.273 -0.1460  1.8023  1.0808
22559SOL     OW69117   4.218   0.616  10.184 -0.8398 -0.1430  0.1342
22559SOL    HW169118   4.297   0.620  10.237  0.6119 -1.4463 -1.7860
22559SOL    HW269119   4.189   0.707  10.177  0.1465  0.2884  1.3432
22560SOL     OW69120   7.681   0.773   7.186  0.3056 -0.0143  0.5570
22560SOL    HW169121   7.758   0.728   7.221 -0.3476  0.3666  2.6497
22560SOL    HW269122   7.607   0.722   7.217 -0.3403  0.3905 -0.2656
22561SOL     OW69123   4.761   0.864   5.539 -0.0437  0.2094  0.4976
22561SOL    HW169124   4.816   0.786   5.530  0.3128  0.5107  0.0126
22561SOL    HW269125   4.714   0.851   5.621  0.7614 -0.0458  0.9272
22562SOL     OW69126   3.214   4.175  11.845 -0.0333  0.4087 -0.3436
22562SOL    HW169127   3.243   4.184  11.936  1.1945 -0.0517 -0.6710
22562SOL    HW269128   3.292   4.196  11.793 -0.9902  1.6731 -1.3182
22563SOL     OW69129   1.206   7.701   0.280 -0.0309  0.6269 -0.0894
22563SOL    HW169130   1.216   7.606   0.281  0.0974  0.6489  0.6721
22563SOL    HW269131   1.260   7.730   0.206 -1.1315  0.0039 -1.1816
22564SOL     OW69132   6.032   5.610   3.508  0.2787  0.3363 -0.7243
22564SOL    HW169133   5.949   5.566   3.529 -0.1576  1.0437 -0.9441
22564SOL    HW269134   6.063   5.566   3.429  0.9262 -0.9953  0.2158
22565SOL     OW69135   7.676   3.575   6.393  0.3863  0.0699  0.6727
22565SOL    HW169136   7.763   3.613   6.405  0.8201 -0.6233 -0.1605
22565SOL    HW269137   7.689   3.481   6.400 -0.3342 -0.0338  0.7109
22566SOL     OW69138   3.159   2.912   5.360 -0.1309 -0.3760  0.2325
22566SOL    HW169139   3.252   2.892   5.350  0.2817  1.0186  1.0419
22566SOL    HW269140   3.140   2.973   5.289  0.6135  2.4759  2.3008
22567SOL     OW69141   0.736   2.271  10.914 -0.5808  0.4813 -0.1810
22567SOL    HW169142   0.684   2.210  10.967 -0.6745  1.4682  0.9119
22567SOL    HW269143   0.792   2.215  10.860 -0.4622 -0.5690  0.9967
22568SOL     OW69144   4.215   6.467   3.508 -0.4737  0.1808 -0.3884
22568SOL    HW169145   4.232   6.390   3.453  1.0549 -0.9812  1.6021
22568SOL    HW269146   4.124   6.457   3.535 -0.3376 -0.8725 -0.2690
22569SOL     OW69147   3.931   1.331   3.421  0.2000 -0.2164  0.0802
22569SOL    HW169148   3.979   1.263   3.374  0.3008  0.6684 -1.1487
22569SOL    HW269149   3.874   1.283   3.481  0.6876 -1.3664 -0.3472
22570SOL     OW69150   5.413   4.621   6.247 -0.3070 -0.2966  0.3661
22570SOL    HW169151   5.376   4.545   6.203  0.7063 -0.2772 -0.5613
22570SOL    HW269152   5.337   4.671   6.276 -1.0537  0.1166 -2.0970
22571SOL     OW69153   3.283   5.033   7.150  0.5769 -0.4867  0.1857
22571SOL    HW169154   3.247   4.944   7.150 -0.2682 -0.1667  1.2850
22571SOL    HW269155   3.288   5.057   7.058  0.4248 -1.5172 -0.1052
22572SOL     OW69156   7.777   0.202   1.554 -0.2328 -0.8363 -0.3539
22572SOL    HW169157   7.729   0.211   1.471 -0.3258  0.7684 -0.1479
22572SOL    HW269158   7.709   0.200   1.621 -0.0819  0.0135 -0.1677
22573SOL     OW69159   0.026   0.663   3.135  0.3880 -0.5208 -0.5214
22573SOL    HW169160   0.071   0.706   3.207  0.7025  1.0946 -1.6189
22573SOL    HW269161   0.094   0.648   3.070  0.0799 -1.8032 -0.5693
22574SOL     OW69162   7.236   1.302   3.178 -0.3038  0.1769  0.1072
22574SOL    HW169163   7.222   1.300   3.272  0.1247  1.4352  0.2153
22574SOL    HW269164   7.174   1.367   3.145 -0.0046  0.2204 -0.3923
22575SOL     OW69165   5.622   0.012  10.535 -0.2852  0.1145  0.0352
22575SOL    HW169166   5.561   0.060  10.479 -2.2749 -0.8838  1.2298
22575SOL    HW269167   5.619   0.057  10.619 -0.6536 -0.8793  0.5774
22576SOL     OW69168   4.888   6.854  10.299 -0.3983  0.0905 -0.7839
22576SOL    HW169169   4.961   6.913  10.319 -0.1943 -0.5135  0.3034
22576SOL    HW269170   4.931   6.772  10.273 -0.6199 -1.0110  2.0139
22577SOL     OW69171   5.976   3.435   0.108  0.5478 -0.8901  0.1300
22577SOL    HW169172   6.057   3.484   0.100 -1.3456  2.3657 -0.8643
22577SOL    HW269173   5.973   3.407   0.199  0.6771  3.1495  1.5772
22578SOL     OW69174   0.873   1.207   3.435 -0.2816  0.0296 -0.2673
22578SOL    HW169175   0.964   1.226   3.461 -1.4683  3.1952  2.1711
22578SOL    HW269176   0.874   1.211   3.340  2.2014 -0.5172 -0.3428
22579SOL     OW69177   1.037   5.094  11.681  0.6298  0.7426  0.4608
22579SOL    HW169178   1.059   5.136  11.598 -0.1275  2.3214  1.0059
22579SOL    HW269179   0.978   5.156  11.724  0.8656 -0.1114  2.1011
22580SOL     OW69180   6.258   0.260   1.445 -0.0814  0.3504  0.0254
22580SOL    HW169181   6.328   0.314   1.409 -0.1187 -0.3536 -1.1287
22580SOL    HW269182   6.273   0.173   1.407  0.0364 -0.5039  1.9116
22581SOL     OW69183   4.015   5.281   9.232  0.2915 -0.1505  0.5430
22581SOL    HW169184   3.985   5.205   9.183  1.1106  0.4099 -0.9025
22581SOL    HW269185   4.110   5.277   9.227  0.4246  2.3957 -2.0789
22582SOL     OW69186   3.697   5.357   8.087 -0.1894  0.5686  0.2712
22582SOL    HW169187   3.662   5.387   8.003  0.0913  0.2100  0.0198
22582SOL    HW269188   3.722   5.438   8.133 -1.4759  0.8402  0.5286
22583SOL     OW69189   5.328   3.520  10.315 -0.2801 -0.0547  0.5799
22583SOL    HW169190   5.379   3.454  10.268  1.0855  1.1834  0.2359
22583SOL    HW269191   5.271   3.559  10.248 -0.1057  0.0255  0.4753
22584SOL     OW69192   6.104   2.292  10.820 -0.0617  0.2958 -0.1529
22584SOL    HW169193   6.188   2.327  10.789  0.5521  0.9622  2.0859
22584SOL    HW269194   6.098   2.320  10.911 -2.8987  0.5256 -0.3198
22585SOL     OW69195   7.280   1.867   2.819  0.3179  1.0055 -0.5730
22585SOL    HW169196   7.250   1.780   2.795 -1.4428  1.4308 -0.1016
22585SOL    HW269197   7.311   1.859   2.909 -0.5738  0.9947 -0.2549
22586SOL     OW69198   1.350   4.212   4.234  0.2932 -0.1348 -0.0542
22586SOL    HW169199   1.374   4.284   4.176  0.4599  0.2551  0.4923
22586SOL    HW269200   1.361   4.247   4.322  2.3369 -1.4329  0.2688
22587SOL     OW69201   7.269   6.813   7.701 -0.1186  0.3885  0.0893
22587SOL    HW169202   7.242   6.779   7.616  3.5532  0.4290 -1.2901
22587SOL    HW269203   7.211   6.888   7.717 -0.1720  1.1401 -3.0227
22588SOL     OW69204   7.644   7.634   9.416 -0.0878  0.4109  0.0526
22588SOL    HW169205   7.615   7.629   9.507 -2.2008  0.8263 -0.5580
22588SOL    HW269206   7.729   7.678   9.421 -0.4452  0.9920  1.7702
22589SOL     OW69207   7.335   2.350   5.629  0.0012 -0.4482 -0.4752
22589SOL    HW169208   7.330   2.391   5.715  0.1268 -0.6381 -0.3769
22589SOL    HW269209   7.262   2.288   5.627 -0.8202  0.4978 -1.0084
22590SOL     OW69210   5.420   3.198   5.021 -0.2230  0.1664 -0.3533
22590SOL    HW169211   5.504   3.182   4.978  0.8486  1.9200  0.9387
22590SOL    HW269212   5.372   3.254   4.961 -0.0779 -0.0388 -0.6644
22591SOL     OW69213   6.537   3.318   4.448  0.4099 -0.3997 -0.6556
22591SOL    HW169214   6.492   3.398   4.421  0.8942 -0.3546 -1.3447
22591SOL    HW269215   6.610   3.309   4.386  0.7923 -0.9771 -0.1311
22592SOL     OW69216   7.822   3.533   1.268  0.1614 -0.3830 -0.4023
22592SOL    HW169217   7.884   3.598   1.302 -0.8270 -0.2297  1.2123
22592SOL    HW269218   7.856   3.449   1.299 -0.3819 -0.3037  0.4355
22593SOL     OW69219   3.296   2.146   0.061  0.6229 -0.4092 -0.2177
22593SOL    HW169220   3.374   2.106   0.099 -0.6182 -1.5902  1.1883
22593SOL    HW269221   3.224   2.118   0.117 -0.8394  0.6338 -1.4760
22594SOL     OW69222   5.053   6.289   6.380  0.0224  0.1757  0.3114
22594SOL    HW169223   4.998   6.367   6.371  0.2959  0.5166  1.4225
22594SOL    HW269224   5.021   6.246   6.460  0.2042 -0.5844 -0.0166
22595SOL     OW69225   0.298   2.304   5.658 -0.0594  0.1625 -0.3158
22595SOL    HW169226   0.373   2.362   5.642  0.0817  0.6786  1.9384
22595SOL    HW269227   0.254   2.341   5.734  0.2662 -2.8367  1.5063
22596SOL     OW69228   4.006   7.251   2.609  0.2378 -0.3112  0.5169
22596SOL    HW169229   4.062   7.256   2.686 -0.3719  0.5820  0.9190
22596SOL    HW269230   4.044   7.312   2.546  0.1571 -0.2791  0.4980
22597SOL     OW69231   7.232   3.124   1.442  0.3322  0.5364 -0.3172
22597SOL    HW169232   7.249   3.070   1.365  0.1816 -1.2655  0.8573
22597SOL    HW269233   7.148   3.092   1.476 -0.6295  2.6825 -0.5192
22598SOL     OW69234   7.834   2.022   0.616  0.5743  0.8592  0.4508
22598SOL    HW169235   7.886   2.102   0.627  0.8105  0.4452  2.6268
22598SOL    HW269236   7.844   1.974   0.698 -2.2843  0.1870  0.5292
22599SOL     OW69237   6.815   5.574  11.473  0.0087 -0.0836 -0.2293
22599SOL    HW169238   6.802   5.492  11.425 -0.7376  0.1931 -0.5125
22599SOL    HW269239   6.840   5.637  11.405 -1.3669  0.3869 -0.3422
22600SOL     OW69240   6.785   5.427   9.782  0.1531  0.4468 -0.5010
22600SOL    HW169241   6.878   5.430   9.761  0.2357  0.3888 -0.1423
22600SOL    HW269242   6.741   5.440   9.697  0.4695  2.5251 -0.3990
22601SOL     OW69243   3.412   5.985  11.726 -0.0011 -0.1343 -0.1450
22601SOL    HW169244   3.493   6.036  11.733  0.1658 -0.4672  0.5274
22601SOL    HW269245   3.440   5.902  11.686  0.1787 -0.6120  0.9267
22602SOL     OW69246   5.502   5.609   2.578  0.1351 -0.3572  0.7256
22602SOL    HW169247   5.587   5.590   2.617 -0.5476  0.3883  2.6497
22602SOL    HW269248   5.519   5.607   2.484  1.8984 -1.9579  1.0051
22603SOL     OW69249   4.001   6.929   1.533  0.4122 -0.0217 -0.3722
22603SOL    HW169250   3.996   6.918   1.628 -1.6443 -0.1888 -0.4637
22603SOL    HW269251   4.015   7.022   1.519  0.6516  0.0111  0.0720
22604SOL     OW69252   6.005   1.478   4.373  0.4226  0.0443  0.2562
22604SOL    HW169253   5.953   1.490   4.293 -0.7351  0.6173  1.0710
22604SOL    HW269254   6.070   1.548   4.370  0.5126 -0.0588 -0.2713
22605SOL     OW69255   2.349   3.152   1.177  0.1684  1.3328 -0.5342
22605SOL    HW169256   2.437   3.134   1.210  0.3373  1.0139 -1.1260
22605SOL    HW269257   2.324   3.070   1.133 -0.8220  1.0741  0.4775
22606SOL     OW69258   3.529   5.711   3.053 -0.2559 -0.2528  0.4645
22606SOL    HW169259   3.564   5.731   2.966  0.7150 -2.8033  0.1793
22606SOL    HW269260   3.590   5.753   3.114  2.4037 -2.9443 -0.0738
22607SOL     OW69261   0.819   6.862   3.463 -0.1341  0.0875 -0.6010
22607SOL    HW169262   0.818   6.826   3.552 -1.1327 -2.2095 -1.4714
22607SOL    HW269263   0.733   6.904   3.453 -0.5794 -0.8648 -0.9046
22608SOL     OW69264   4.719   4.357   8.374 -0.0317  0.7184  0.2361
22608SOL    HW169265   4.765   4.348   8.290  0.6147  1.0251  0.5490
22608SOL    HW269266   4.731   4.449   8.398 -0.2112  0.6284  0.6725
22609SOL     OW69267   5.194   5.128   9.776 -0.4591 -0.3693  0.1680
22609SOL    HW169268   5.166   5.087   9.694 -0.7744 -1.1104  0.6364
22609SOL    HW269269   5.250   5.201   9.748 -0.2453 -0.8442 -0.7021
22610SOL     OW69270   5.453   1.284   3.049  0.4193 -0.0497  0.3674
22610SOL    HW169271   5.363   1.310   3.029  0.5216  2.7024  2.7538
22610SOL    HW269272   5.506   1.356   3.014  1.4477 -0.4105  1.1586
22611SOL     OW69273   6.632   7.018  12.025 -0.0230 -1.0954  0.6390
22611SOL    HW169274   6.686   7.019  11.946  0.3412 -0.6215  0.8910
22611SOL    HW269275   6.547   6.983  11.996 -0.7065  1.2967 -0.5190
22612SOL     OW69276   3.747   2.394  11.067 -0.3876  0.2198  0.1743
22612SOL    HW169277   3.662   2.364  11.101  0.5247 -1.3514  1.1975
22612SOL    HW269278   3.749   2.488  11.087 -0.8078 -0.2107  2.6026
22613SOL     OW69279   7.136   2.464   5.244  0.5029  0.1791  0.0277
22613SOL    HW169280   7.104   2.417   5.321  1.7634 -0.9021 -0.0766
22613SOL    HW269281   7.155   2.553   5.276 -1.0005  0.3854  0.4411
22614SOL     OW69282   2.926   1.060   0.547  0.3243  0.1333 -0.1211
22614SOL    HW169283   2.842   1.013   0.554  1.1821 -1.5948 -0.9282
22614SOL    HW269284   2.931   1.087   0.456 -0.1958  1.9754  0.3483
22615SOL     OW69285   4.183   2.162  11.216  0.0609  0.1166  0.5110
22615SOL    HW169286   4.136   2.186  11.296  0.3264  1.2716  0.3500
22615SOL    HW269287   4.145   2.219  11.148  1.5455  0.9840  0.3540
22616SOL     OW69288   4.218   0.636   7.319 -0.1269  0.0208 -0.0818
22616SOL    HW169289   4.152   0.641   7.250 -0.3777  0.2313  0.1677
22616SOL    HW269290   4.295   0.679   7.283  0.4285 -1.6637 -0.9939
22617SOL     OW69291   0.353   6.705   6.453  0.3129 -0.0172 -0.4281
22617SOL    HW169292   0.383   6.707   6.362 -0.0068 -0.6091 -0.5527
22617SOL    HW269293   0.260   6.728   6.448  0.3406  0.1348 -0.2301
22618SOL     OW69294   0.512   7.462  11.280  0.0499  0.5967 -0.4382
22618SOL    HW169295   0.474   7.527  11.340 -1.5388  0.7092 -1.5008
22618SOL    HW269296   0.511   7.505  11.195 -1.6699 -1.0122 -1.3004
22619SOL     OW69297   4.262   0.136   9.590  0.3164 -0.2016  0.2275
22619SOL    HW169298   4.290   0.159   9.501 -0.7499 -1.1474 -0.3687
22619SOL    HW269299   4.344   0.117   9.637  0.7706 -1.8756 -1.1688
22620SOL     OW69300   1.105   3.370   1.146 -0.2536  0.2649 -0.1087
22620SOL    HW169301   1.179   3.310   1.137  0.6282  1.5746 -2.4550
22620SOL    HW269302   1.143   3.450   1.184 -0.1102  1.3443 -2.3335
22621SOL     OW69303   0.474   6.721   1.799 -0.3147  0.5773 -0.0630
22621SOL    HW169304   0.415   6.647   1.816 -1.1972  0.6524 -2.5332
22621SOL    HW269305   0.456   6.782   1.870 -0.8627 -0.7846  1.0289
22622SOL     OW69306   5.100   5.138   0.907  0.2505  0.0674  0.5439
22622SOL    HW169307   5.121   5.209   0.967  0.0562 -1.1316  2.1043
22622SOL    HW269308   5.006   5.124   0.919 -0.3421  1.3963 -1.8926
22623SOL     OW69309   5.941   5.231   6.171 -0.6743 -0.0551  0.6020
22623SOL    HW169310   5.943   5.177   6.091  1.2639  2.1694 -0.9943
22623SOL    HW269311   5.869   5.292   6.157 -0.6450  0.0206  0.7873
22624SOL     OW69312   2.500   3.665   1.444  0.2175  0.4152  0.1519
22624SOL    HW169313   2.478   3.716   1.522  1.3336 -1.7321  1.9679
22624SOL    HW269314   2.567   3.717   1.400 -0.0635  1.4155  0.8656
22625SOL     OW69315   2.173   5.483   0.175  1.0031  0.6837 -0.1768
22625SOL    HW169316   2.192   5.575   0.196 -0.8066  0.4537  3.1497
22625SOL    HW269317   2.085   5.484   0.137  1.7160  0.4156 -1.9514
22626SOL     OW69318   4.077   1.850  11.133 -0.3444 -0.2517 -0.6419
22626SOL    HW169319   4.126   1.930  11.115 -0.9985  0.1813 -0.5290
22626SOL    HW269320   4.080   1.801  11.051  0.7761 -0.5104 -0.4623
22627SOL     OW69321   0.540   1.731   9.933 -0.2854 -0.1540 -0.3247
22627SOL    HW169322   0.564   1.728   9.841 -0.3506  0.8224 -0.3830
22627SOL    HW269323   0.514   1.822   9.949 -1.5045 -0.5941  0.3501
22628SOL     OW69324   2.352   4.902   6.084  0.3589 -0.1883 -0.9116
22628SOL    HW169325   2.287   4.834   6.065  0.2665 -0.7469  1.1428
22628SOL    HW269326   2.347   4.962   6.009 -2.4301 -0.2577 -0.8795
22629SOL     OW69327   1.203   2.105   2.874  0.4281  0.0747 -0.0099
22629SOL    HW169328   1.200   2.197   2.899  1.0812  0.0738  0.0779
22629SOL    HW269329   1.139   2.098   2.802  0.7224  0.6956 -0.3392
22630SOL     OW69330   5.042   6.794   8.573  0.5370  0.4570 -0.1135
22630SOL    HW169331   5.036   6.873   8.519 -0.3968  3.8527  4.3629
22630SOL    HW269332   4.952   6.775   8.597  0.5780 -3.0254 -2.0616
22631SOL     OW69333   5.352   2.438  12.249 -0.2982  0.3773 -0.5757
22631SOL    HW169334   5.304   2.421  12.330 -0.3132 -0.5732 -0.7700
22631SOL    HW269335   5.285   2.451  12.183 -0.2883  0.2732 -0.6066
22632SOL     OW69336   0.605   0.195   6.524 -0.1853 -0.1542 -0.3881
22632SOL    HW169337   0.627   0.142   6.601  0.3472  0.1331 -0.3311
22632SOL    HW269338   0.672   0.172   6.460 -0.0561  0.3161 -0.4229
22633SOL     OW69339   1.543   2.811  10.952 -0.0749  0.0807 -0.2305
22633SOL    HW169340   1.574   2.726  10.981 -1.7294 -0.7738 -0.8722
22633SOL    HW269341   1.619   2.869  10.964  0.4788 -1.0015  2.1475
22634SOL     OW69342   0.839   2.076  10.741  0.0639 -0.2782  1.0966
22634SOL    HW169343   0.769   2.011  10.750 -1.4231  1.3793  2.3505
22634SOL    HW269344   0.888   2.049  10.663 -0.9646 -2.4156  1.1295
22635SOL     OW69345   3.431   3.431   2.448  0.3345  0.3038  0.0084
22635SOL    HW169346   3.453   3.513   2.492 -2.1634  0.5903  0.9435
22635SOL    HW269347   3.391   3.378   2.517 -3.2818  0.5730 -1.6314
22636SOL     OW69348   2.166   1.828   5.925 -0.2601 -0.3906 -0.6253
22636SOL    HW169349   2.218   1.748   5.941  0.5353  0.3239  0.5338
22636SOL    HW269350   2.125   1.813   5.840 -0.6281 -2.2996 -0.1674
22637SOL     OW69351   5.304   6.589  11.381 -0.2668 -0.0550  0.2706
22637SOL    HW169352   5.353   6.508  11.369  0.1673  0.2898 -0.3278
22637SOL    HW269353   5.354   6.638  11.446 -0.3250 -0.1084  0.3555
22638SOL     OW69354   4.227   2.473   4.617  0.1854  0.5025  0.1556
22638SOL    HW169355   4.174   2.395   4.631 -4.2625  3.6139  3.9953
22638SOL    HW269356   4.303   2.462   4.673 -1.6473 -0.2265  2.6597
22639SOL     OW69357   5.202   4.999   3.754  0.2678  0.5947  0.2262
22639SOL    HW169358   5.293   5.011   3.729  0.9794 -0.4132  2.0948
22639SOL    HW269359   5.202   5.006   3.849 -1.6128  0.5888  0.2657
22640SOL     OW69360   3.223   5.686   7.166  0.6223  0.0819 -0.1268
22640SOL    HW169361   3.291   5.746   7.197  0.1796  0.3279  0.3822
22640SOL    HW269362   3.166   5.673   7.242  0.3869 -0.5263 -0.4005
22641SOL     OW69363   2.784   7.086   7.298 -0.4055  0.1688  0.7464
22641SOL    HW169364   2.764   7.041   7.380 -0.8101  0.0683  0.5903
22641SOL    HW269365   2.756   7.177   7.313 -1.2371 -0.0287  0.4361
22642SOL     OW69366   6.375   0.536   7.599  0.2259  0.2736 -0.2900
22642SOL    HW169367   6.338   0.624   7.600  0.8880  0.5592 -0.4981
22642SOL    HW269368   6.466   0.548   7.571  0.9714 -0.2225  1.7060
22643SOL     OW69369   7.748   5.419   1.946 -0.2424 -0.5603 -0.7198
22643SOL    HW169370   7.746   5.514   1.936  0.0651 -0.6001 -1.1923
22643SOL    HW269371   7.656   5.393   1.953 -0.3390 -0.2567 -0.8476
22644SOL     OW69372   5.659   3.115   4.926  0.7205 -0.0145  0.2109
22644SOL    HW169373   5.725   3.179   4.952  2.0060 -1.5338  0.8038
22644SOL    HW269374   5.627   3.079   5.009 -0.3636  0.1804 -0.1000
22645SOL     OW69375   5.935   7.394   3.759 -0.1460 -0.1835  0.0669
22645SOL    HW169376   6.024   7.427   3.749 -0.2455  0.0793  0.0407
22645SOL    HW269377   5.919   7.396   3.853 -0.8353  1.6811 -0.0478
22646SOL     OW69378   7.172   0.412   0.337  0.2684  0.4841  0.5510
22646SOL    HW169379   7.120   0.393   0.260 -0.0101 -0.3146  0.9321
22646SOL    HW269380   7.111   0.406   0.410  0.3923  1.8304  0.7954
22647SOL     OW69381   6.884   1.851   0.025 -0.0338  0.4664 -1.1368
22647SOL    HW169382   6.837   1.934   0.014 -1.5482 -0.3347 -1.0299
22647SOL    HW269383   6.923   1.834  -0.061 -1.1424  0.4780 -1.6678
22648SOL     OW69384   2.895   2.456   3.548  0.1194 -0.3604  0.4313
22648SOL    HW169385   2.883   2.523   3.480 -0.5651 -0.7502  0.1571
22648SOL    HW269386   2.973   2.408   3.521  0.5969  0.2993  0.6111
22649SOL     OW69387   2.630   5.983   3.996 -0.3679  0.3850 -0.0461
22649SOL    HW169388   2.550   5.945   4.032  0.5779 -0.4477  1.2992
22649SOL    HW269389   2.701   5.934   4.038  0.8672  1.5152 -0.7110
22650SOL     OW69390   3.838   6.412  12.331  0.0955  0.2363 -0.0561
22650SOL    HW169391   3.859   6.347  12.398  1.1158  0.1189 -0.4707
22650SOL    HW269392   3.920   6.425  12.283 -0.2681  1.3139 -0.4278
22651SOL     OW69393   7.211   3.566   8.321  0.1487  0.5371  0.1217
22651SOL    HW169394   7.161   3.546   8.400 -2.2026  3.0145 -0.5629
22651SOL    HW269395   7.179   3.503   8.256  0.4281 -0.0508  0.5478
22652SOL     OW69396   4.942   4.885  12.215 -0.0796  0.4012 -0.1319
22652SOL    HW169397   4.982   4.851  12.136 -1.7561 -1.1282 -0.3963
22652SOL    HW269398   4.916   4.975  12.193  2.5973  1.2491 -0.1056
22653SOL     OW69399   4.454   3.194   3.339  0.6297 -0.9115 -0.1339
22653SOL    HW169400   4.463   3.264   3.275  2.0098 -0.9516 -0.0311
22653SOL    HW269401   4.477   3.114   3.291  0.3490 -1.1197  0.0745
22654SOL     OW69402   3.284   5.435  11.150  0.6373 -0.2634 -0.1271
22654SOL    HW169403   3.252   5.344  11.146 -0.8346  0.1833  0.8819
22654SOL    HW269404   3.342   5.437  11.225 -0.7603  0.0245  0.9835
22655SOL     OW69405   0.469   4.758   5.237 -0.0929  0.0529 -0.3656
22655SOL    HW169406   0.472   4.790   5.327  0.4982  0.4848 -0.5326
22655SOL    HW269407   0.393   4.801   5.199 -0.8754 -0.8081  0.1664
22656SOL     OW69408   2.900   5.587   5.692 -0.6443 -0.2056  0.2364
22656SOL    HW169409   2.840   5.647   5.737 -0.3909  2.2800 -2.4161
22656SOL    HW269410   2.852   5.505   5.688 -3.6738  1.4560 -1.0629
22657SOL     OW69411   4.920   4.293   1.710 -0.3888 -0.0101  0.4449
22657SOL    HW169412   4.925   4.260   1.620  0.4797 -1.0249  0.8366
22657SOL    HW269413   4.928   4.388   1.701 -1.0446 -0.0402 -0.5970
22658SOL     OW69414   5.676   3.332   3.000  0.7506 -0.1011  0.1783
22658SOL    HW169415   5.742   3.291   2.944  0.8021  0.8368 -0.4727
22658SOL    HW269416   5.637   3.400   2.945  0.6873  0.7323  1.2189
22659SOL     OW69417   6.414   4.312  11.437  0.0137  0.2290  0.8004
22659SOL    HW169418   6.509   4.296  11.431 -0.4360 -2.2751 -2.1689
22659SOL    HW269419   6.395   4.367  11.362 -0.9562  0.4907  1.2286
22660SOL     OW69420   6.212   2.985  10.202  0.1645  0.3741 -0.3051
22660SOL    HW169421   6.199   2.939  10.285  0.4940 -0.4241 -0.6842
22660SOL    HW269422   6.286   2.940  10.162  2.0922  2.7260  0.3637
22661SOL     OW69423   4.692   1.452   9.545 -0.3206 -0.0548 -0.3448
22661SOL    HW169424   4.695   1.418   9.455  0.6313  1.7748 -1.0614
22661SOL    HW269425   4.703   1.547   9.535  0.8057  0.0902  1.7620
22662SOL     OW69426   3.258   4.596   9.618  0.2959  0.1575 -0.5695
22662SOL    HW169427   3.223   4.511   9.647 -0.7713  0.5658 -0.6071
22662SOL    HW269428   3.306   4.575   9.538 -0.1222 -0.3874 -0.6872
22663SOL     OW69429   6.889   0.277  11.597 -0.6808  0.1406 -0.0678
22663SOL    HW169430   6.907   0.366  11.628 -0.1037  0.1838 -0.5105
22663SOL    HW269431   6.930   0.220  11.661 -2.0523  0.1472  0.8633
22664SOL     OW69432   5.766   3.761   6.819 -0.1485 -0.1187 -0.1076
22664SOL    HW169433   5.784   3.669   6.804 -0.2458 -0.3392  1.0344
22664SOL    HW269434   5.690   3.761   6.878  0.6026  0.6420  0.9059
22665SOL     OW69435   6.456   5.901   7.778  0.6782 -0.2127  0.0874
22665SOL    HW169436   6.427   5.922   7.867  1.4417 -1.7229  0.7186
22665SOL    HW269437   6.408   5.821   7.756  0.8240 -0.0875 -0.6957
22666SOL     OW69438   6.734   2.396   9.824  0.2899 -0.1740  0.0710
22666SOL    HW169439   6.696   2.481   9.846  2.0258  0.6642  0.0288
22666SOL    HW269440   6.761   2.405   9.732  0.8421 -0.6221  0.1863
22667SOL     OW69441   6.788   6.878   4.599  0.0800 -0.1721 -0.3969
22667SOL    HW169442   6.739   6.918   4.528  0.3163  0.0303 -0.4470
22667SOL    HW269443   6.761   6.786   4.598 -0.6502  0.0318 -0.1266
22668SOL     OW69444   4.373   0.655   4.295 -0.2641 -0.3804  0.1279
22668SOL    HW169445   4.420   0.606   4.362  1.2351  0.4531 -0.2622
22668SOL    HW269446   4.311   0.709   4.343 -0.6899 -1.3262  0.6736
22669SOL     OW69447   5.890   0.356   0.230  0.1541 -0.7315 -0.0542
22669SOL    HW169448   5.889   0.422   0.161 -0.8229  0.8310  1.3803
22669SOL    HW269449   5.876   0.273   0.184 -1.6986  0.3699 -1.6111
22670SOL     OW69450   0.301   2.883   1.302  0.0565  0.1301 -0.7022
22670SOL    HW169451   0.230   2.921   1.251 -0.6101  0.1931  0.2500
22670SOL    HW269452   0.356   2.958   1.326  0.3007  0.1157 -1.2080
22671SOL     OW69453   7.495   0.670   2.067  0.2522 -0.0645 -0.1805
22671SOL    HW169454   7.578   0.622   2.065 -0.3038 -1.1412  1.1143
22671SOL    HW269455   7.513   0.748   2.120  0.4774 -0.1990 -0.0596
22672SOL     OW69456   6.145   1.983  11.432 -0.2790  0.1511 -0.6841
22672SOL    HW169457   6.050   1.968  11.433  0.0997 -2.6136 -0.5294
22672SOL    HW269458   6.183   1.899  11.455  2.2663  1.1073 -1.1131
22673SOL     OW69459   6.942   3.190   8.078 -0.6504 -0.2573 -0.0645
22673SOL    HW169460   6.851   3.198   8.050 -1.2213 -0.9481  1.4769
22673SOL    HW269461   6.978   3.119   8.026 -1.1294 -0.2744 -0.3697
22674SOL     OW69462   1.831   5.148   8.888 -0.4087  0.5545  0.1560
22674SOL    HW169463   1.781   5.197   8.953  1.2425  1.5455  0.7280
22674SOL    HW269464   1.821   5.056   8.914 -1.6983  0.7388  0.3862
22675SOL     OW69465   2.480   1.186   4.867  0.1386 -0.0141  0.1958
22675SOL    HW169466   2.555   1.205   4.811 -0.6131  0.9949 -0.4923
22675SOL    HW269467   2.484   1.253   4.936 -0.1492  0.0662  0.1350
22676SOL     OW69468   7.456   6.980   8.669 -0.0781  0.2138 -0.0918
22676SOL    HW169469   7.441   7.061   8.622  1.0245  1.8543  2.1837
22676SOL    HW269470   7.397   6.917   8.628 -1.2186  2.2190 -1.7239
22677SOL     OW69471   1.957   0.048   2.096 -0.1564  0.0494  0.1148
22677SOL    HW169472   1.870   0.076   2.126  0.5330  0.3543  1.9262
22677SOL    HW269473   1.994   0.000   2.170  1.8542  1.2942 -0.0210
22678SOL     OW69474   1.082   6.704   4.059 -0.0737 -0.1510  0.7639
22678SOL    HW169475   1.023   6.771   4.094 -0.4333  0.9639 -1.7678
22678SOL    HW269476   1.163   6.750   4.040  0.8858 -1.2095  2.1436
22679SOL     OW69477   1.295   1.702  12.277  0.3122 -0.1211  0.0150
22679SOL    HW169478   1.229   1.762  12.243 -0.5391 -1.0721 -0.0466
22679SOL    HW269479   1.367   1.707  12.213 -0.1615  0.0972 -0.5095
22680SOL     OW69480   0.920   1.245   4.159  0.2300 -0.6949  0.3056
22680SOL    HW169481   0.857   1.243   4.231 -0.5141 -0.3528 -0.3215
22680SOL    HW269482   0.906   1.331   4.117  1.3682 -0.4635  0.3843
22681SOL     OW69483   0.474   1.789   2.833 -0.3019  0.1480  0.6917
22681SOL    HW169484   0.461   1.880   2.861  0.5833  0.5671 -0.1713
22681SOL    HW269485   0.430   1.784   2.748  1.0088  0.2515 -0.0196
22682SOL     OW69486   1.326   2.848   4.938 -0.0755 -0.1521 -0.0849
22682SOL    HW169487   1.370   2.798   5.007  2.0293  2.4452  0.6231
22682SOL    HW269488   1.282   2.919   4.984 -2.8023 -1.0758 -1.0721
22683SOL     OW69489   7.258   2.309   1.514  0.1211  0.1634  0.8864
22683SOL    HW169490   7.170   2.307   1.475  0.8249 -0.1834 -0.7698
22683SOL    HW269491   7.279   2.402   1.518  0.4118  0.1963 -0.5610
22684SOL     OW69492   7.468   2.695   2.959  0.0571  0.6845 -0.1734
22684SOL    HW169493   7.558   2.666   2.969 -0.7393 -2.9281 -1.6678
22684SOL    HW269494   7.474   2.778   2.911  2.5648  2.0683  2.2819
22685SOL     OW69495   6.145   1.856   8.516  0.3000  0.0158 -0.3191
22685SOL    HW169496   6.223   1.899   8.480  0.2025  0.4013 -0.0797
22685SOL    HW269497   6.137   1.892   8.604  0.1912 -0.4689 -0.1245
22686SOL     OW69498   2.403   1.238  10.054  0.8562  0.1736  0.1890
22686SOL    HW169499   2.450   1.203  10.130  0.8375 -0.9720 -0.2960
22686SOL    HW269500   2.341   1.169  10.031  1.0250  0.3926 -1.0082
22687SOL     OW69501   1.611   0.658  10.130 -0.2360  0.3304 -0.0077
22687SOL    HW169502   1.651   0.585  10.084 -1.6570 -0.9852  0.7778
22687SOL    HW269503   1.668   0.733  10.111  1.1144 -0.9179 -1.0139
22688SOL     OW69504   4.453   1.984   4.616  0.3973  0.3539  0.7766
22688SOL    HW169505   4.515   1.914   4.635  1.3369  0.6785 -0.8929
22688SOL    HW269506   4.421   2.011   4.701  1.2648 -0.9792  1.5666
22689SOL     OW69507   4.448   2.740  10.488  0.4386  0.6658  0.3012
22689SOL    HW169508   4.395   2.676  10.441  1.5047 -0.1276  0.1312
22689SOL    HW269509   4.397   2.761  10.566 -0.5825  0.7174 -0.3635
22690SOL     OW69510   0.126   7.207   2.105 -0.7550 -0.0712 -0.2769
22690SOL    HW169511   0.194   7.269   2.079 -0.9298  0.5580  0.6989
22690SOL    HW269512   0.069   7.201   2.028 -0.6166  0.8252 -0.4653
22691SOL     OW69513   5.157   6.200   4.387 -0.5433  0.5820  0.0027
22691SOL    HW169514   5.222   6.131   4.399 -0.3853  0.7261 -0.0273
22691SOL    HW269515   5.163   6.223   4.294 -0.3619  0.8708  0.0860
22692SOL     OW69516   4.438   2.355   4.449 -0.2457 -0.1760  0.1705
22692SOL    HW169517   4.475   2.367   4.537 -0.1807 -1.8970  0.4211
22692SOL    HW269518   4.363   2.414   4.447  1.5075  2.1954  0.2210
22693SOL     OW69519   0.380   4.643   5.964 -0.0825 -0.4886 -0.0037
22693SOL    HW169520   0.414   4.727   5.994  2.2610 -0.5635 -2.1499
22693SOL    HW269521   0.438   4.577   6.003  0.0745 -0.8868 -0.8909
22694SOL     OW69522   5.389   0.538   5.793 -0.1734  0.4871 -0.0065
22694SOL    HW169523   5.441   0.591   5.854  0.0507 -0.6985  0.8759
22694SOL    HW269524   5.382   0.453   5.836  0.0415 -0.4166 -1.6818
22695SOL     OW69525   1.019   4.249   6.119  0.4992  0.1588 -0.5648
22695SOL    HW169526   1.114   4.241   6.120  0.4322 -0.9345  0.9135
22695SOL    HW269527   0.992   4.227   6.208 -1.1952 -0.3947 -1.1709
22696SOL     OW69528   1.351   1.659   6.340 -0.8868  0.0765  0.3262
22696SOL    HW169529   1.349   1.595   6.269 -1.0696  0.1674  0.2490
22696SOL    HW269530   1.434   1.643   6.385 -0.6300  0.2146 -0.0926
22697SOL     OW69531   2.922   7.190   2.435 -0.2089 -0.0627 -0.5909
22697SOL    HW169532   2.990   7.219   2.374  0.8047 -0.6000  0.2403
22697SOL    HW269533   2.915   7.261   2.499 -0.4127 -0.0276 -0.6495
22698SOL     OW69534   4.548   4.549  10.558  0.0701  0.3251 -0.1789
22698SOL    HW169535   4.476   4.496  10.591  0.0878 -0.1800 -0.9193
22698SOL    HW269536   4.534   4.635  10.596 -0.2973 -0.0537  0.5646
22699SOL     OW69537   4.391   5.802  10.805 -0.1255 -0.2363  0.2149
22699SOL    HW169538   4.317   5.863  10.801  0.3535  0.3525  0.2414
22699SOL    HW269539   4.419   5.805  10.897 -0.8354 -1.3895  0.4844
22700SOL     OW69540   1.734   3.475   9.877  0.4598 -0.9179  0.1986
22700SOL    HW169541   1.785   3.555   9.887  2.9254 -2.3063 -0.6309
22700SOL    HW269542   1.753   3.425   9.956 -3.1747  0.2312  2.0809
22701SOL     OW69543   0.187   0.774   1.242 -0.0582 -0.0556  0.1466
22701SOL    HW169544   0.101   0.777   1.285  0.3648 -1.1457  1.1093
22701SOL    HW269545   0.243   0.729   1.304  1.2323  0.6467 -0.4700
22702SOL     OW69546   4.923   1.285   6.204  0.0596 -0.1231  0.0084
22702SOL    HW169547   4.918   1.348   6.276  0.2969  1.4296 -1.2520
22702SOL    HW269548   4.832   1.261   6.186 -0.1071  0.5036 -0.0113
22703SOL     OW69549   1.431   5.158   8.704  0.1127 -0.0529 -0.4498
22703SOL    HW169550   1.473   5.230   8.752  0.6248  0.2016 -1.2634
22703SOL    HW269551   1.500   5.123   8.648 -0.5134 -0.2529 -1.1052
22704SOL     OW69552   6.305   5.799   8.457 -0.1420  0.0700 -0.1947
22704SOL    HW169553   6.292   5.739   8.530 -0.6818 -0.7247 -0.9224
22704SOL    HW269554   6.335   5.880   8.497 -0.0933 -0.4616  0.8716
22705SOL     OW69555   0.010   3.868  10.667 -0.6155 -0.2361  0.6198
22705SOL    HW169556   0.076   3.805  10.638 -1.0964 -0.3653 -0.2470
22705SOL    HW269557  -0.029   3.827  10.744 -2.1726 -1.9139 -0.9569
22706SOL     OW69558   7.033   2.553   8.268 -0.3539  0.5595  0.1782
22706SOL    HW169559   6.957   2.594   8.308 -0.9124 -0.8429  0.6136
22706SOL    HW269560   7.107   2.586   8.319 -0.8361  0.6651  0.8280
22707SOL     OW69561   2.676   1.207   4.241  0.0784 -0.5084 -0.4134
22707SOL    HW169562   2.590   1.233   4.208  1.0804  0.8593 -2.0461
22707SOL    HW269563   2.719   1.165   4.167  1.0098 -0.7535  0.2521
22708SOL     OW69564   5.528   6.605   7.242  0.3928  0.3733 -0.3636
22708SOL    HW169565   5.618   6.592   7.273  0.6136 -1.4959 -1.5719
22708SOL    HW269566   5.509   6.525   7.192 -2.3099  0.2841  0.6824
22709SOL     OW69567   3.777   2.739   9.385  0.3016 -0.0918  0.0509
22709SOL    HW169568   3.720   2.697   9.321 -0.9095  0.5600  0.6490
22709SOL    HW269569   3.815   2.813   9.339  0.8256 -0.6376 -0.4077
22710SOL     OW69570   6.286   2.474   8.631  0.0415 -0.2311 -0.5045
22710SOL    HW169571   6.215   2.526   8.668  1.0504  0.5297  0.4403
22710SOL    HW269572   6.310   2.521   8.551 -0.0755 -0.1101 -0.4691
22711SOL     OW69573   6.774   7.468  12.295 -0.4128 -0.4555 -0.4973
22711SOL    HW169574   6.700   7.441  12.240 -1.0758 -1.4069  0.8181
22711SOL    HW269575   6.743   7.459  12.385  0.7048  0.9038  0.0776
22712SOL     OW69576   0.759   7.643  11.250 -0.0732  0.1674  0.1514
22712SOL    HW169577   0.825   7.653  11.181  0.0396 -0.4849  0.1576
22712SOL    HW269578   0.688   7.594  11.208 -0.1219  0.0074  0.4212
22713SOL     OW69579   6.332   4.406   3.861 -0.5957  0.0509 -0.3819
22713SOL    HW169580   6.236   4.412   3.859 -0.5319  1.6092 -0.2171
22713SOL    HW269581   6.361   4.497   3.851  0.8570 -0.3313  0.2128
22714SOL     OW69582   4.369   3.849  10.372  0.0086 -0.2841  0.1174
22714SOL    HW169583   4.426   3.810  10.439  0.4955  0.2202  0.0046
22714SOL    HW269584   4.362   3.941  10.398  1.0105  0.1516 -1.0520
22715SOL     OW69585   5.177   3.555   5.014  0.0533  0.0336  0.2307
22715SOL    HW169586   5.212   3.563   4.926  0.2820  1.5567  0.4218
22715SOL    HW269587   5.140   3.467   5.018  2.3340 -1.0309 -0.5302
22716SOL     OW69588   7.655   0.284   6.113  0.4336 -0.7059 -0.3507
22716SOL    HW169589   7.609   0.350   6.061  1.1048  0.1988  0.1757
22716SOL    HW269590   7.705   0.234   6.049  1.1949  0.3489 -0.6191
22717SOL     OW69591   2.594   1.145   5.973 -0.0591  0.2786  0.2455
22717SOL    HW169592   2.653   1.082   6.014 -0.6090 -0.2737  0.2044
22717SOL    HW269593   2.562   1.198   6.046  0.8070  0.8561  0.2132
22718SOL     OW69594   1.650   2.163  11.349  0.1539 -0.4818  0.0027
22718SOL    HW169595   1.566   2.143  11.310  1.0240 -2.0584 -1.1794
22718SOL    HW269596   1.676   2.082  11.394  0.4585  0.3999  1.4897
22719SOL     OW69597   7.668   2.339   1.525  0.1395 -0.1450 -0.3048
22719SOL    HW169598   7.635   2.367   1.610 -0.6856 -2.3161  0.1598
22719SOL    HW269599   7.758   2.309   1.542 -0.2675 -1.2470 -0.0203
22720SOL     OW69600   0.944   7.555   3.375  0.1012  0.0624  0.0732
22720SOL    HW169601   0.886   7.631   3.365  0.8678  0.6177 -0.2924
22720SOL    HW269602   0.918   7.516   3.458 -0.2727  0.7617  0.2971
22721SOL     OW69603   1.853   2.650   0.581 -0.2955  0.3639  0.0838
22721SOL    HW169604   1.842   2.555   0.585  0.6680  0.2333 -0.0782
22721SOL    HW269605   1.887   2.667   0.493 -2.4759  1.1012 -0.6609
22722SOL     OW69606   4.970   0.298   3.344 -0.2192 -0.2722  0.0590
22722SOL    HW169607   4.959   0.218   3.396 -0.5273 -0.4870 -0.3321
22722SOL    HW269608   5.033   0.273   3.276 -0.3462 -0.1966 -0.0882
22723SOL     OW69609   3.562   0.626   3.818  0.1616 -0.0722 -0.7802
22723SOL    HW169610   3.578   0.597   3.728 -0.2025 -0.6487 -0.6660
22723SOL    HW269611   3.637   0.682   3.838  0.7532 -0.7205 -1.1109
22724SOL     OW69612   3.304   5.205   3.381 -0.2840 -0.4883  0.0194
22724SOL    HW169613   3.372   5.235   3.442 -0.8853 -0.7593  0.8394
22724SOL    HW269614   3.261   5.285   3.352  1.0506 -0.2268 -1.3252
22725SOL     OW69615   4.012   0.541   3.916  0.2101 -0.5151  0.7559
22725SOL    HW169616   4.043   0.476   3.853  0.0386 -2.4536  2.5623
22725SOL    HW269617   4.092   0.579   3.953  0.3317 -0.7336  0.7166
22726SOL     OW69618   7.071   7.144   0.488 -0.3646 -0.4404 -0.2105
22726SOL    HW169619   7.116   7.217   0.443 -1.0041 -0.7041 -1.3211
22726SOL    HW269620   6.980   7.171   0.490 -0.2077  0.0924  2.0433
22727SOL     OW69621   0.065   5.575   3.613 -0.3940 -0.2768 -0.0007
22727SOL    HW169622   0.158   5.554   3.618 -0.2338  0.6157  1.3293
22727SOL    HW269623   0.060   5.647   3.549 -0.2839 -0.8604 -0.6721
22728SOL     OW69624   6.890   6.508   9.414 -0.1296  0.0761 -0.1242
22728SOL    HW169625   6.926   6.477   9.497  0.5295  0.6550 -0.1879
22728SOL    HW269626   6.912   6.438   9.352  0.0963  0.0198  0.0190
22729SOL     OW69627   2.449   2.675  11.935 -0.0737  0.2005 -0.2915
22729SOL    HW169628   2.464   2.674  11.840  1.4721 -0.5908 -0.0765
22729SOL    HW269629   2.511   2.611  11.969 -1.4131 -0.3685  1.1622
22730SOL     OW69630   5.852   4.470   9.915  0.0589 -0.2648 -0.1795
22730SOL    HW169631   5.838   4.557   9.879  1.1704 -0.1889 -0.4784
22730SOL    HW269632   5.802   4.469   9.997 -1.6919 -0.0945 -1.2013
22731SOL     OW69633   5.223   3.095   8.148  0.4308 -0.0753  0.2975
22731SOL    HW169634   5.222   3.136   8.235  1.5363 -0.3968  0.4678
22731SOL    HW269635   5.143   3.043   8.145  1.0165 -1.0769  1.6178
22732SOL     OW69636   4.264   4.076   0.857  0.2297 -0.2314  0.2245
22732SOL    HW169637   4.263   4.120   0.942  0.5858  1.6547 -0.7056
22732SOL    HW269638   4.242   4.144   0.794  0.2516 -1.5256 -1.2449
22733SOL     OW69639   4.866   0.645   2.783 -0.7711 -0.2311 -0.2489
22733SOL    HW169640   4.771   0.645   2.772 -0.8570 -0.4971  0.4215
22733SOL    HW269641   4.883   0.572   2.842  0.0910 -1.6679 -2.2144
22734SOL     OW69642   5.114   4.347   9.488 -0.1422  0.2798  0.0397
22734SOL    HW169643   5.182   4.382   9.432 -0.3508  0.7196  0.0573
22734SOL    HW269644   5.146   4.360   9.577 -0.4435  0.9106  0.0637
22735SOL     OW69645   0.472   6.710   6.206 -0.0310  0.0656  0.0718
22735SOL    HW169646   0.456   6.758   6.124  2.4111 -1.1965 -1.2530
22735SOL    HW269647   0.563   6.683   6.200 -0.6381 -2.7058  1.8063
22736SOL     OW69648   0.989   1.510   0.356  0.4881 -0.1980  0.1461
22736SOL    HW169649   0.980   1.481   0.265 -1.4527  1.1746 -0.1731
22736SOL    HW269650   1.070   1.560   0.358  1.5285 -1.7861 -0.3464
22737SOL     OW69651   1.827   0.522  10.348 -0.4046 -0.2696  0.3384
22737SOL    HW169652   1.906   0.557  10.391 -1.1471  0.9519  0.7502
22737SOL    HW269653   1.843   0.536  10.255  0.2179 -0.8058  0.3523
22738SOL     OW69654   5.937   0.367  11.098 -0.1206  0.5017  0.2238
22738SOL    HW169655   5.968   0.290  11.051  0.7793 -0.3243  2.0732
22738SOL    HW269656   5.884   0.332  11.169 -0.1248  1.6114  0.7901
22739SOL     OW69657   2.745   3.825   8.377  0.6831  0.4167 -0.1085
22739SOL    HW169658   2.775   3.788   8.294  0.2202  1.8837 -0.9734
22739SOL    HW269659   2.650   3.815   8.374  0.4713  2.1992 -0.6822
22740SOL     OW69660   5.608   6.219  12.189 -0.0037  0.4462 -0.3556
22740SOL    HW169661   5.602   6.127  12.216 -2.1035  0.7687  0.4689
22740SOL    HW269662   5.702   6.238  12.190  0.3431 -0.9025  2.2539
22741SOL     OW69663   0.184   3.423   7.565  0.1586 -0.0223 -0.3072
22741SOL    HW169664   0.262   3.469   7.535  0.4881 -1.5021 -1.9169
22741SOL    HW269665   0.114   3.456   7.509 -0.1927  0.6184  0.4989
22742SOL     OW69666   6.410   7.604   9.633  0.1057  0.3621 -0.1266
22742SOL    HW169667   6.443   7.612   9.544  0.4692 -2.7014 -0.3536
22742SOL    HW269668   6.461   7.667   9.683  1.1942  0.8327 -1.7457
22743SOL     OW69669   6.624   6.887   9.163 -0.2813 -0.5118 -0.3452
22743SOL    HW169670   6.579   6.820   9.215 -0.5971  0.1046  0.2051
22743SOL    HW269671   6.554   6.929   9.112  0.1866 -1.8967 -2.2177
22744SOL     OW69672   1.974   3.514   7.181 -0.7245 -0.0453 -0.6079
22744SOL    HW169673   1.914   3.523   7.107 -1.4115 -3.1420 -0.5714
22744SOL    HW269674   1.921   3.472   7.249 -0.1379  2.7344  1.7758
22745SOL     OW69675   4.958   2.716   6.286 -0.2978  0.1836  0.4035
22745SOL    HW169676   4.987   2.658   6.357 -1.3398 -1.9607 -0.8497
22745SOL    HW269677   5.040   2.747   6.247  0.3079 -0.7962  0.8405
22746SOL     OW69678   3.115   0.536   6.523  0.5760  0.3053  0.3744
22746SOL    HW169679   3.177   0.531   6.596 -0.3080 -0.1639  1.1179
22746SOL    HW269680   3.047   0.595   6.554  0.4156  0.4515 -0.2513
22747SOL     OW69681   6.319   4.670   8.063 -0.0069  0.1465  0.3312
22747SOL    HW169682   6.384   4.616   8.019  0.0523 -1.7735  2.5340
22747SOL    HW269683   6.361   4.695   8.146 -1.6178 -0.2055  1.3042
22748SOL     OW69684   6.303   7.241   5.860  0.1133  0.1651  0.5663
22748SOL    HW169685   6.287   7.200   5.775 -1.2450  2.4256 -0.3504
22748SOL    HW269686   6.368   7.309   5.842  0.5834  0.0100  1.5770
22749SOL     OW69687   0.349   4.599   8.078 -0.0108 -0.3209 -0.2156
22749SOL    HW169688   0.349   4.503   8.085  0.4351 -0.3809 -0.9896
22749SOL    HW269689   0.275   4.618   8.021  1.1655 -0.3611 -1.8297
22750SOL     OW69690   3.692   6.098   2.208  0.2428  0.2466 -0.1553
22750SOL    HW169691   3.647   6.043   2.273  2.3324 -0.9994  0.3369
22750SOL    HW269692   3.774   6.122   2.251  1.4885 -0.2374 -2.1527
22751SOL     OW69693   3.196   5.902   1.169 -0.1240 -0.8909  0.7567
22751SOL    HW169694   3.247   5.868   1.242 -0.4012 -0.3924  1.1880
22751SOL    HW269695   3.183   5.826   1.112  2.0475 -0.8112  0.0580
22752SOL     OW69696   4.917   0.374   2.126  0.2343  0.1393  0.2365
22752SOL    HW169697   4.841   0.372   2.184 -1.1437 -0.4769 -1.4957
22752SOL    HW269698   4.989   0.342   2.180 -0.6652  0.9184  1.9926
22753SOL     OW69699   5.091   2.511   7.890  0.3975  0.4888  0.0673
22753SOL    HW169700   5.021   2.515   7.956 -0.9955 -1.0410 -1.2389
22753SOL    HW269701   5.072   2.584   7.831 -1.6725 -1.3385 -1.6845
22754SOL     OW69702   2.395   2.389   1.268  0.4802 -0.2961  0.4994
22754SOL    HW169703   2.456   2.458   1.240 -0.3147  0.2308  0.0286
22754SOL    HW269704   2.315   2.405   1.217  0.7353 -2.4285 -0.6875
22755SOL     OW69705   5.632   2.524   6.515 -0.6490 -0.2934 -0.2175
22755SOL    HW169706   5.628   2.613   6.481 -0.2480 -0.0781  0.2854
22755SOL    HW269707   5.726   2.506   6.525 -0.6625 -1.2445 -1.5219
22756SOL     OW69708   0.017   0.651   2.689  0.6746 -0.4159  0.8436
22756SOL    HW169709  -0.037   0.574   2.707  1.3355 -0.9747  0.4559
22756SOL    HW269710   0.077   0.624   2.620  0.5414  0.6254  0.2973
22757SOL     OW69711   1.867   4.309  10.314  0.0037  0.3384  0.1258
22757SOL    HW169712   1.919   4.383  10.284  1.8526 -1.4063 -1.2191
22757SOL    HW269713   1.889   4.237  10.254 -2.2408 -1.1443  0.9184
22758SOL     OW69714   2.690   1.496  11.374  0.1772  0.0400 -0.2294
22758SOL    HW169715   2.754   1.429  11.349 -0.0354 -1.2833  2.4031
22758SOL    HW269716   2.619   1.447  11.415 -0.0570  1.8261  1.6871
22759SOL     OW69717   3.955   6.429   7.191  0.0326  0.4713 -0.4062
22759SOL    HW169718   4.034   6.401   7.145  0.6124 -1.1548  1.4210
22759SOL    HW269719   3.883   6.389   7.141  0.5644 -0.3178 -0.5587
22760SOL     OW69720   2.559   4.248   7.371  0.1161 -0.0361  0.4121
22760SOL    HW169721   2.530   4.193   7.299 -0.2397  0.6303  0.0402
22760SOL    HW269722   2.485   4.250   7.431 -1.0791  2.4505 -0.9893
22761SOL     OW69723   1.918   0.613   0.021 -0.3067  0.2507  1.0281
22761SOL    HW169724   1.883   0.596  -0.067  1.2091 -0.9030  0.6003
22761SOL    HW269725   1.864   0.684   0.055 -1.7017 -0.0884 -0.3634
22762SOL     OW69726   1.357   4.766   2.109  0.0867 -0.0329 -0.2531
22762SOL    HW169727   1.279   4.773   2.055  0.6421  1.0331 -0.9476
22762SOL    HW269728   1.336   4.699   2.174 -0.6057 -1.2941 -1.7475
22763SOL     OW69729   1.126   6.202   1.014 -0.2211  0.5534  0.2411
22763SOL    HW169730   1.147   6.275   0.955  1.3355 -1.4206 -1.8285
22763SOL    HW269731   1.212   6.171   1.044 -0.6224 -2.0634 -1.0931
22764SOL     OW69732   2.354   1.048   6.167 -0.0573  0.2521 -0.2945
22764SOL    HW169733   2.447   1.039   6.147  0.1874  0.6620  0.6379
22764SOL    HW269734   2.347   1.133   6.211 -0.9239  0.3657 -0.6364
22765SOL     OW69735   5.330   1.209   8.488  0.5585 -0.3323  0.1647
22765SOL    HW169736   5.348   1.268   8.560 -3.4594 -0.9627  1.9837
22765SOL    HW269737   5.364   1.124   8.517  0.3084 -0.2678  0.6573
22766SOL     OW69738   0.233   6.327   3.369 -0.3238 -1.0359  0.8116
22766SOL    HW169739   0.173   6.334   3.443 -2.0301  1.9626 -0.6768
22766SOL    HW269740   0.302   6.390   3.389  0.0252 -1.3148  0.5113
22767SOL     OW69741   4.545   7.580   6.549 -0.1571  0.4838 -0.4831
22767SOL    HW169742   4.547   7.557   6.641 -3.5205  1.1640 -0.1342
22767SOL    HW269743   4.491   7.513   6.508 -0.3826  1.3056 -1.5877
22768SOL     OW69744   1.106   1.872   4.499 -0.0229  0.0056 -0.4649
22768SOL    HW169745   1.189   1.844   4.538 -1.4127 -4.2887 -0.0186
22768SOL    HW269746   1.125   1.957   4.460  3.6833  0.7225  2.3346
22769SOL     OW69747   1.150   1.301   0.241  0.5234  0.0388 -0.1193
22769SOL    HW169748   1.231   1.353   0.241  0.8228 -0.3770  1.2426
22769SOL    HW269749   1.133   1.284   0.334 -0.2468 -1.2430 -0.4697
22770SOL     OW69750   4.901   4.022  12.333  0.2560 -0.1369  0.1222
22770SOL    HW169751   4.898   3.954  12.266  0.8927  0.2776 -0.3381
22770SOL    HW269752   4.904   3.974  12.416 -1.0920 -0.6497 -0.0954
22771SOL     OW69753   1.851   3.197   4.377  0.0960 -0.3323  0.0644
22771SOL    HW169754   1.939   3.165   4.355 -0.6954 -2.5436 -0.0763
22771SOL    HW269755   1.855   3.291   4.358  1.7234 -0.7796 -2.2723
22772SOL     OW69756   0.355   4.501   1.741 -0.4918  0.3353 -0.3864
22772SOL    HW169757   0.300   4.457   1.677  1.1452  0.1952 -1.7844
22772SOL    HW269758   0.425   4.541   1.689  0.3013  1.1489  1.2293
22773SOL     OW69759   1.921   0.143   3.597 -0.1853  0.4170 -0.6030
22773SOL    HW169760   1.888   0.213   3.654  1.3287  2.0112 -1.5927
22773SOL    HW269761   1.871   0.065   3.624 -1.0381  1.5659  1.4004
22774SOL     OW69762   5.643   6.139  11.469  0.1045  0.4997  0.1153
22774SOL    HW169763   5.574   6.186  11.423  0.0738  1.0928  0.7507
22774SOL    HW269764   5.600   6.062  11.507  0.1084  0.0655 -0.7349
22775SOL     OW69765   2.139   7.800   4.797 -0.5809 -0.4043  0.1945
22775SOL    HW169766   2.125   7.825   4.888  1.5228  0.1743  0.4109
22775SOL    HW269767   2.160   7.706   4.801 -0.3967 -0.3588  0.3243
22776SOL     OW69768   1.161   7.666  11.212 -1.1774  0.2582  0.0742
22776SOL    HW169769   1.114   7.631  11.287 -0.5987  0.1125  0.3728
22776SOL    HW269770   1.192   7.589  11.165  1.6575  0.2560  1.6960
22777SOL     OW69771   2.716   2.497  10.038  0.4808  0.0613 -1.0551
22777SOL    HW169772   2.749   2.485  10.127  0.2390 -0.6133 -1.0475
22777SOL    HW269773   2.742   2.417   9.993  2.7778  1.4042 -2.2969
22778SOL     OW69774   6.435   5.724   4.042 -0.4174  0.5753 -0.4019
22778SOL    HW169775   6.358   5.764   4.002 -0.8304 -1.5017 -1.8374
22778SOL    HW269776   6.401   5.670   4.113 -0.1387  0.7068 -0.1649
22779SOL     OW69777   2.358   7.602  10.691  0.4760  0.1186 -0.7158
22779SOL    HW169778   2.418   7.598  10.617  0.5008 -0.7600 -0.6537
22779SOL    HW269779   2.402   7.657  10.755  0.9229  0.0160 -0.9346
22780SOL     OW69780   4.568   2.921   2.891  0.3465  0.4081  0.3136
22780SOL    HW169781   4.630   2.978   2.846  1.3428 -0.9230 -0.0503
22780SOL    HW269782   4.613   2.837   2.899 -1.7447 -0.9389 -0.8916
22781SOL     OW69783   1.576   2.267   5.376  0.3693 -0.3234  0.2787
22781SOL    HW169784   1.584   2.175   5.402 -0.1368 -0.7201 -0.8697
22781SOL    HW269785   1.491   2.271   5.332  0.0369  0.8761  0.9926
22782SOL     OW69786   1.539   2.995   6.385  0.0656 -0.4729 -0.0980
22782SOL    HW169787   1.467   2.978   6.447 -1.3472 -3.4430 -2.2914
22782SOL    HW269788   1.496   3.025   6.305  1.4812 -0.2888 -0.8245
22783SOL     OW69789   7.654   5.477  11.837  0.5938 -0.2394 -0.2246
22783SOL    HW169790   7.604   5.517  11.765 -0.8544  1.4953  1.6151
22783SOL    HW269791   7.713   5.546  11.866  0.8053 -0.7423  0.5655
22784SOL     OW69792   3.363   1.061  11.906 -0.2461  0.4922 -0.1712
22784SOL    HW169793   3.400   1.032  11.823 -0.0339  1.1338 -0.3055
22784SOL    HW269794   3.269   1.064  11.891 -0.4268 -1.6123  0.3187
22785SOL     OW69795   4.038   2.422   1.004 -0.0708  0.5918 -0.2998
22785SOL    HW169796   4.051   2.329   0.985 -1.8593 -0.1552  1.6703
22785SOL    HW269797   3.944   2.436   0.992  0.0859  2.0172 -0.0541
22786SOL     OW69798   0.419   0.425   1.131  0.1808  0.0042  0.1998
22786SOL    HW169799   0.414   0.357   1.199  0.3571  0.5462  0.7636
22786SOL    HW269800   0.472   0.495   1.170  2.4746 -0.7061 -1.4159
22787SOL     OW69801   5.364   7.403   4.546 -0.4742  0.6414  0.2742
22787SOL    HW169802   5.402   7.477   4.498 -2.9589  1.7568 -0.1635
22787SOL    HW269803   5.437   7.365   4.594  1.3936  1.7892 -1.5085
22788SOL     OW69804   5.997   3.918   8.845 -0.1274  0.3646 -0.3520
22788SOL    HW169805   6.052   3.993   8.870  1.0004 -0.2665 -0.8479
22788SOL    HW269806   5.957   3.889   8.927 -0.5525  1.4667 -0.1438
22789SOL     OW69807   2.114   3.302   8.815 -0.6459  0.7219 -0.9455
22789SOL    HW169808   2.146   3.379   8.863 -1.3103  0.3883  0.0666
22789SOL    HW269809   2.034   3.332   8.772 -0.0648  1.0133 -1.8511
22790SOL     OW69810   4.539   5.999   3.261  0.7466 -0.1640  0.1209
22790SOL    HW169811   4.524   6.023   3.352 -0.8557 -2.9259  0.6856
22790SOL    HW269812   4.504   6.073   3.211 -0.6853  0.2980  1.7194
22791SOL     OW69813   3.180   4.381   7.129 -0.4451 -0.7132  0.0299
22791SOL    HW169814   3.243   4.446   7.159 -0.3288 -0.6671 -0.3037
22791SOL    HW269815   3.095   4.418   7.153 -0.3453 -0.8026  0.5304
22792SOL     OW69816   0.617   4.172   3.586 -0.1596 -0.1374  0.9170
22792SOL    HW169817   0.590   4.254   3.626 -1.7148 -0.2481  0.1529
22792SOL    HW269818   0.611   4.107   3.656  0.3657  0.2628  1.3359
22793SOL     OW69819   0.816   5.315   6.028 -0.0759  0.6447 -0.8436
22793SOL    HW169820   0.753   5.248   6.002  1.7745 -0.9875 -1.3881
22793SOL    HW269821   0.828   5.369   5.950  1.0511 -0.6155 -1.5841
22794SOL     OW69822   7.790   3.086   8.471 -0.5479  0.7936 -0.1753
22794SOL    HW169823   7.698   3.109   8.463 -0.3774  1.4762 -0.3225
22794SOL    HW269824   7.791   2.996   8.502 -1.2576  0.1232 -1.9717
22795SOL     OW69825   4.688   3.185   0.669 -0.3725 -0.3102  0.0102
22795SOL    HW169826   4.774   3.213   0.639  0.1332  0.8887  2.3599
22795SOL    HW269827   4.641   3.267   0.687 -0.8292 -0.9168  1.8031
22796SOL     OW69828   5.655   0.143   8.183  0.5215  0.7791  0.0712
22796SOL    HW169829   5.656   0.091   8.263  3.6327  0.5574  0.0274
22796SOL    HW269830   5.682   0.231   8.211 -0.1139  1.1657 -0.5018
22797SOL     OW69831   1.248   3.487   4.372 -0.0658 -0.2088  0.3584
22797SOL    HW169832   1.301   3.453   4.444  0.6742  0.0276 -0.0688
22797SOL    HW269833   1.242   3.414   4.310  0.2715 -0.0399  0.1266
22798SOL     OW69834   3.763   2.556   8.843  0.3556  0.7912 -0.5277
22798SOL    HW169835   3.839   2.558   8.901 -1.0496  2.0306  1.4229
22798SOL    HW269836   3.757   2.645   8.809 -0.1352  0.6746 -0.7503
22799SOL     OW69837   4.729   5.315  10.049  0.3945 -0.0680  0.3455
22799SOL    HW169838   4.812   5.270  10.066  0.1480 -0.6291  0.1053
22799SOL    HW269839   4.744   5.364   9.968  0.8599  0.7873  0.9457
22800SOL     OW69840   0.619   7.483   6.982 -0.0167  0.6058 -0.1929
22800SOL    HW169841   0.643   7.423   6.912  0.1311 -0.2889  0.6014
22800SOL    HW269842   0.696   7.540   6.993  0.3483  0.1033 -0.0973
22801SOL     OW69843   1.474   2.559   3.397 -0.4759  0.1293 -0.1541
22801SOL    HW169844   1.527   2.583   3.322 -0.3949 -0.8290 -0.4143
22801SOL    HW269845   1.535   2.562   3.471  0.3051 -2.2141 -0.6343
22802SOL     OW69846   5.235   3.618   4.757 -0.3301  0.1154 -0.2016
22802SOL    HW169847   5.232   3.712   4.740 -2.9654  0.0850 -0.3595
22802SOL    HW269848   5.190   3.579   4.681 -1.4349 -1.0262  0.9897
22803SOL     OW69849   2.568   4.243   6.934  0.1019 -0.0986  0.2577
22803SOL    HW169850   2.493   4.290   6.897  1.2570 -0.0706 -2.2531
22803SOL    HW269851   2.576   4.277   7.023 -0.9386  2.2456 -0.4614
22804SOL     OW69852   3.040   4.901  11.038  0.4182  0.3689  0.3620
22804SOL    HW169853   3.085   4.828  11.080 -0.1527 -0.8599 -1.0616
22804SOL    HW269854   2.947   4.887  11.059  0.3533  0.9857  0.5009
22805SOL     OW69855   4.607   1.853   1.280  0.1890 -0.0993  0.1626
22805SOL    HW169856   4.624   1.915   1.210 -1.7681 -0.3516 -0.5824
22805SOL    HW269857   4.645   1.770   1.248  0.7648  0.1616  0.1542
22806SOL     OW69858   4.995   5.309   0.345 -0.6652  0.7115 -0.2373
22806SOL    HW169859   4.933   5.379   0.367 -0.7720  0.8338 -0.8976
22806SOL    HW269860   5.058   5.309   0.417 -2.3400 -0.5213  1.3062
22807SOL     OW69861   5.961   7.205  11.793  0.4233  0.1073  0.4216
22807SOL    HW169862   5.996   7.116  11.799 -0.5965 -0.2776  1.0149
22807SOL    HW269863   5.945   7.231  11.884  0.9964  1.0217  0.2733
22808SOL     OW69864   4.481   1.883   2.107 -0.1077  0.0718 -0.0300
22808SOL    HW169865   4.465   1.946   2.036 -0.8679  0.1757  0.2208
22808SOL    HW269866   4.395   1.844   2.124 -0.2653  1.0707  1.7754
22809SOL     OW69867   4.337   7.883   7.030  0.4561 -0.2357 -0.0579
22809SOL    HW169868   4.376   7.966   7.058  0.2660 -0.2014  0.1038
22809SOL    HW269869   4.296   7.903   6.946 -0.9696  0.2275  0.7318
22810SOL     OW69870   6.432   3.618   2.943 -0.0376 -0.1011  0.2341
22810SOL    HW169871   6.376   3.628   3.019  0.8464  0.2414  0.8562
22810SOL    HW269872   6.456   3.525   2.942 -1.1721 -0.4039 -0.4520
22811SOL     OW69873   3.515   6.023   1.696 -0.2713 -0.0684 -0.8460
22811SOL    HW169874   3.563   5.973   1.761 -0.7149  2.4826  1.6472
22811SOL    HW269875   3.425   5.989   1.701 -0.4642  0.5818  0.4689
22812SOL     OW69876   6.091   6.861  10.539 -0.1961  0.5109 -0.3524
22812SOL    HW169877   6.174   6.814  10.550  0.5656  1.7123 -0.7188
22812SOL    HW269878   6.037   6.832  10.612 -1.2942 -3.9110 -2.5850
22813SOL     OW69879   1.429   7.534  10.961 -0.3326  0.0625  0.2791
22813SOL    HW169880   1.494   7.603  10.972 -1.2813  1.0997 -0.4628
22813SOL    HW269881   1.448   7.496  10.875  0.7869 -1.2985  1.0706
22814SOL     OW69882   3.604   0.825   3.321  0.2433  0.1440 -0.3440
22814SOL    HW169883   3.541   0.855   3.255 -0.0481 -0.2668 -0.2573
22814SOL    HW269884   3.549   0.800   3.395  0.5470  0.2620 -0.0776
22815SOL     OW69885   0.453   2.607   5.367  0.0190 -0.2090  0.2798
22815SOL    HW169886   0.494   2.559   5.295  0.5510 -0.8950  1.0091
22815SOL    HW269887   0.361   2.615   5.342  0.8130  2.9197 -2.2330
22816SOL     OW69888   3.511   3.486   6.999  0.3148  0.0260  0.0935
22816SOL    HW169889   3.512   3.391   7.000 -0.2673  0.0238  0.2316
22816SOL    HW269890   3.444   3.509   6.935  0.1817  0.3480  0.3471
22817SOL     OW69891   3.449   1.051   4.249 -0.0509 -0.0155  0.2704
22817SOL    HW169892   3.491   0.979   4.202  0.3058  0.4821 -0.1822
22817SOL    HW269893   3.403   1.100   4.182 -1.8129 -0.8207  0.8150
22818SOL     OW69894   0.780   7.845   7.834 -0.2862  0.2744  0.1662
22818SOL    HW169895   0.725   7.917   7.861 -1.4062 -0.5149  0.0526
22818SOL    HW269896   0.736   7.766   7.867  0.4988 -0.4090 -0.3546
22819SOL     OW69897   6.615   2.642   4.123  0.0176 -0.0520 -0.2613
22819SOL    HW169898   6.553   2.589   4.174  0.2568  0.7170  0.8712
22819SOL    HW269899   6.698   2.596   4.131 -0.6270 -2.0311 -3.1910
22820SOL     OW69900   1.152   4.967   1.182  0.1974 -0.3671 -0.4319
22820SOL    HW169901   1.103   4.946   1.102  1.0438  0.5692 -1.2074
22820SOL    HW269902   1.088   5.013   1.237 -0.1634 -0.2951 -0.9002
22821SOL     OW69903   1.620   6.096   1.507  0.7334  0.2473  0.1576
22821SOL    HW169904   1.638   6.063   1.419 -1.4706 -2.1906  0.4712
22821SOL    HW269905   1.697   6.073   1.558  1.4730  0.4613 -0.8402
22822SOL     OW69906   5.121   3.093   0.780  0.2446  0.6245 -0.3598
22822SOL    HW169907   5.118   3.035   0.704 -0.8069  0.5609 -0.2959
22822SOL    HW269908   5.038   3.142   0.776 -0.9370 -0.9836  1.9581
22823SOL     OW69909   1.299   4.310   2.837 -0.3821 -0.0532 -0.6141
22823SOL    HW169910   1.247   4.374   2.788 -0.3188 -0.2188 -0.8986
22823SOL    HW269911   1.340   4.256   2.770  1.5720  1.1414 -0.4841
22824SOL     OW69912   1.720   1.870   2.936 -0.2832  0.1637 -0.1314
22824SOL    HW169913   1.651   1.932   2.913 -0.1150  0.3126 -0.2403
22824SOL    HW269914   1.709   1.855   3.030 -0.3202  0.3671 -0.1021
22825SOL     OW69915   6.636   1.012   3.218  0.0205  0.2190 -0.6544
22825SOL    HW169916   6.648   1.030   3.312 -1.2557  0.6743 -0.5516
22825SOL    HW269917   6.550   0.970   3.214  0.8671 -1.4965 -1.4342
22826SOL     OW69918   6.364   5.354   8.886  0.6370 -0.9425  0.3799
22826SOL    HW169919   6.353   5.421   8.954  1.1279 -0.9385  0.4613
22826SOL    HW269920   6.412   5.399   8.816  1.0943 -1.2434  0.4939
22827SOL     OW69921   4.203   3.071   2.258 -0.4868  0.3326  0.0045
22827SOL    HW169922   4.216   3.076   2.353  0.1574 -0.0690 -0.0572
22827SOL    HW269923   4.273   3.013   2.227 -0.7030  0.4455 -0.7145
22828SOL     OW69924   5.962   5.136   7.655 -0.1259  0.1179 -0.9241
22828SOL    HW169925   5.989   5.108   7.743 -1.1708  0.9223 -0.3149
22828SOL    HW269926   6.036   5.190   7.624  1.1923 -1.8928 -1.4630
22829SOL     OW69927   5.720   5.853   6.720  0.2286  0.1089  0.1246
22829SOL    HW169928   5.757   5.867   6.807  0.7919 -0.2374 -0.0480
22829SOL    HW269929   5.770   5.911   6.663  1.3479 -1.2063 -0.3020
22830SOL     OW69930   6.754   6.190   5.195  0.0289 -0.4001 -0.0647
22830SOL    HW169931   6.714   6.231   5.118 -0.9810 -0.4841  0.4049
22830SOL    HW269932   6.844   6.223   5.196  0.2143 -0.7755 -1.5538
22831SOL     OW69933   7.562   0.356   6.405 -0.0942  0.1484 -0.2301
22831SOL    HW169934   7.489   0.327   6.350 -1.8727  1.5293  1.2957
22831SOL    HW269935   7.575   0.448   6.382  0.3126  0.2591  0.4028
22832SOL     OW69936   2.089   2.543   7.105 -0.9403  0.0265  0.2201
22832SOL    HW169937   2.146   2.619   7.093  0.0098 -0.6461  0.4261
22832SOL    HW269938   2.023   2.552   7.035  1.9171 -1.4607 -2.9755
22833SOL     OW69939   2.908   6.376  12.099  0.2441 -0.3561  0.3668
22833SOL    HW169940   2.815   6.396  12.106  0.1395 -0.4998 -0.5002
22833SOL    HW269941   2.928   6.388  12.006  0.8141 -1.4879  0.3282
22834SOL     OW69942   4.058   0.376  10.364 -0.3038  0.4441 -0.4000
22834SOL    HW169943   4.035   0.468  10.354 -0.6216  0.3898 -0.1993
22834SOL    HW269944   4.125   0.360  10.297 -1.5837  0.3643 -1.7204
22835SOL     OW69945   0.990   6.603   6.976  0.0016  0.5742 -0.1337
22835SOL    HW169946   1.050   6.676   6.962 -0.4087  1.0330  0.4290
22835SOL    HW269947   1.043   6.525   6.965  0.2715  0.9397 -1.5446
22836SOL     OW69948   0.343   1.558  10.220 -0.1643 -0.4970  0.7500
22836SOL    HW169949   0.392   1.514  10.151  1.3786  0.5270  1.1582
22836SOL    HW269950   0.280   1.614  10.173 -0.2354 -1.0244  0.2100
22837SOL     OW69951   7.650   2.286   5.373  0.3938  0.0900  0.1845
22837SOL    HW169952   7.723   2.312   5.316 -0.2358 -0.5224 -0.9404
22837SOL    HW269953   7.576   2.276   5.313 -0.6016  0.6136  1.2925
22838SOL     OW69954   5.553   6.349   2.167  0.2520  0.0664  0.3927
22838SOL    HW169955   5.493   6.307   2.228 -0.4247 -0.2145 -0.4495
22838SOL    HW269956   5.543   6.300   2.085  0.0304  1.3603 -0.3811
22839SOL     OW69957   3.980   2.182   6.767 -0.0808 -0.3842 -0.0161
22839SOL    HW169958   3.905   2.220   6.722 -0.1564  0.4470  0.7954
22839SOL    HW269959   4.021   2.126   6.701 -0.7755  0.0112 -0.8025
22840SOL     OW69960   1.575   5.986   0.354  0.0441  0.0330  0.9322
22840SOL    HW169961   1.666   5.972   0.331  0.2878 -0.3017  2.0319
22840SOL    HW269962   1.576   5.998   0.449 -0.9835  0.6132  0.8875
22841SOL     OW69963   0.933   3.608   5.727 -0.0115  0.3690 -0.3304
22841SOL    HW169964   1.009   3.598   5.784 -1.2799  0.6403  1.5397
22841SOL    HW269965   0.868   3.547   5.762 -1.1298  1.1373 -0.9639
22842SOL     OW69966   5.247   7.878   3.056  0.6191  0.1235 -0.4520
22842SOL    HW169967   5.316   7.941   3.075 -0.0597  1.5805 -2.4417
22842SOL    HW269968   5.274   7.798   3.101  0.6766  2.2131  3.6144
22843SOL     OW69969   1.814   0.975   4.612  0.0520  0.3535  0.0172
22843SOL    HW169970   1.846   0.894   4.653  1.0660  0.3071 -0.8369
22843SOL    HW269971   1.806   1.037   4.685  0.4181 -0.1537  0.4983
22844SOL     OW69972   2.684   3.683   4.907 -0.0816  0.2095  0.6297
22844SOL    HW169973   2.736   3.724   4.838 -1.9549  1.7456  0.0305
22844SOL    HW269974   2.662   3.754   4.966 -1.9577 -0.2294  0.5261
22845SOL     OW69975   6.143   3.743   8.438 -0.5032 -0.2751 -0.2828
22845SOL    HW169976   6.175   3.766   8.351 -1.4669  1.3778 -0.2439
22845SOL    HW269977   6.097   3.821   8.468 -1.6156 -1.3817  1.0379
22846SOL     OW69978   3.251   4.984   9.943  0.1998 -0.4875  0.2477
22846SOL    HW169979   3.308   5.045   9.990  1.2824 -2.1007  1.1446
22846SOL    HW269980   3.311   4.919   9.905 -0.8645 -0.7191 -1.1292
22847SOL     OW69981   5.354   1.757   9.439 -0.0468  0.2466  0.5327
22847SOL    HW169982   5.332   1.792   9.353 -0.8548  0.9273  0.9914
22847SOL    HW269983   5.418   1.689   9.422 -0.7364 -0.1315 -0.6741
22848SOL     OW69984   2.447   1.749  11.352 -0.2756  1.1014 -0.3103
22848SOL    HW169985   2.389   1.729  11.426 -0.2937 -0.0659 -0.6247
22848SOL    HW269986   2.412   1.832  11.317 -1.6739  0.5125 -0.3947
22849SOL     OW69987   3.298   7.782   7.940  0.0766  0.2155 -0.2084
22849SOL    HW169988   3.203   7.793   7.950  0.1795  2.3044 -0.9517
22849SOL    HW269989   3.314   7.797   7.847  1.1316 -0.3030 -0.1212
22850SOL     OW69990   5.594   7.385   1.494  0.3081  0.2967  0.2346
22850SOL    HW169991   5.645   7.464   1.510  1.0331  0.3307 -1.8939
22850SOL    HW269992   5.622   7.355   1.407 -3.0148  0.1289 -0.9453
22851SOL     OW69993   4.085   1.695   8.393  0.6216 -0.2082 -0.1932
22851SOL    HW169994   4.055   1.782   8.417  0.6228 -0.5259  1.0811
22851SOL    HW269995   4.150   1.673   8.460  2.8820 -0.0094 -2.1796
22852SOL     OW69996   2.834   5.505   2.294 -0.1749 -0.2151 -1.0131
22852SOL    HW169997   2.891   5.473   2.223  1.7730  0.4012  0.2015
22852SOL    HW269998   2.880   5.580   2.330 -1.6863  0.1860  0.1834
22853SOL     OW69999   6.567   2.345   4.627  0.0434  0.3680  0.4352
22853SOL    HW170000   6.576   2.370   4.719  0.4822  1.6899  0.0468
22853SOL    HW270001   6.559   2.428   4.580 -2.8643 -0.2856 -0.4726
22854SOL     OW70002   7.430   0.435   8.122  0.0575  0.0425 -0.2774
22854SOL    HW170003   7.348   0.482   8.141  1.2948  1.0214  3.5577
22854SOL    HW270004   7.483   0.499   8.074 -0.8896 -0.1622 -1.6709
22855SOL     OW70005   5.891   0.397   5.867 -0.3061 -0.3855  0.3820
22855SOL    HW170006   5.838   0.444   5.932  2.2333  1.4662  1.2743
22855SOL    HW270007   5.839   0.401   5.787 -2.9091 -1.5095  1.8802
22856SOL     OW70008   6.683   3.528  11.213  0.0748  0.5319  0.2908
22856SOL    HW170009   6.728   3.450  11.181  1.2554  0.7338  1.3689
22856SOL    HW270010   6.753   3.591  11.228 -0.9426  2.1693 -1.4637
22857SOL     OW70011   7.474   5.143   0.521 -0.5478 -0.3537 -0.7564
22857SOL    HW170012   7.539   5.108   0.583 -2.0536 -0.4014  0.8750
22857SOL    HW270013   7.517   5.219   0.482  0.0539  0.4152  1.2735
22858SOL     OW70014   4.412   7.914  11.463 -0.0611 -0.4452  0.9239
22858SOL    HW170015   4.357   7.976  11.416 -1.2177 -1.2292  1.1881
22858SOL    HW270016   4.450   7.964  11.535  0.2110  0.3034  0.2678
22859SOL     OW70017   0.092   2.942   4.119  0.0773  0.8659 -0.1103
22859SOL    HW170018   0.125   2.927   4.207  0.7451  1.3955 -0.2628
22859SOL    HW270019   0.136   2.876   4.065 -0.4818  0.4129 -0.0187
22860SOL     OW70020   0.457   0.191   8.736 -0.2276  0.2584  0.5046
22860SOL    HW170021   0.373   0.145   8.729 -1.1777  1.9604  0.2734
22860SOL    HW270022   0.435   0.278   8.768  1.3954  0.9444 -0.1115
22861SOL     OW70023   0.526   0.425   4.194  0.9226 -0.2256  0.1066
22861SOL    HW170024   0.556   0.334   4.191  0.9884 -0.2284 -3.1778
22861SOL    HW270025   0.603   0.477   4.170  0.6080  0.6109  0.8626
22862SOL     OW70026   7.735   0.456   5.022  0.4800  0.5276  0.0299
22862SOL    HW170027   7.699   0.544   5.032 -1.0181 -0.1329  0.7597
22862SOL    HW270028   7.675   0.399   5.070 -0.0882 -1.2472 -2.5092
22863SOL     OW70029   4.622   0.386   5.407  0.1179  0.0072  0.2875
22863SOL    HW170030   4.576   0.466   5.380  1.5402  0.4859 -0.8090
22863SOL    HW270031   4.662   0.353   5.327  1.4126 -0.5749  1.1438
22864SOL     OW70032   3.754   2.902   6.279 -0.0731  0.5569  0.7951
22864SOL    HW170033   3.829   2.960   6.280 -0.2138  0.8318 -1.1366
22864SOL    HW270034   3.720   2.907   6.189 -1.2912 -0.9617  1.1147
22865SOL     OW70035   6.389   5.686   2.219 -0.1998  0.0081  0.2768
22865SOL    HW170036   6.439   5.766   2.234 -1.7586  1.2418 -0.7363
22865SOL    HW270037   6.362   5.692   2.127 -1.0381 -1.2820  0.4141
22866SOL     OW70038   5.409   1.990  12.310 -0.4608  0.6479  0.7048
22866SOL    HW170039   5.342   2.013  12.376 -0.2733  0.6529  0.8953
22866SOL    HW270040   5.480   2.052  12.327 -1.0202  1.6562 -0.4866
22867SOL     OW70041   4.478   0.892   3.463 -0.2489  0.0964  0.7525
22867SOL    HW170042   4.409   0.918   3.524  0.6846  1.0253  1.4352
22867SOL    HW270043   4.474   0.796   3.464 -0.4453  0.0917  2.0552
22868SOL     OW70044   3.861   7.695   4.412  0.3834  0.5908  0.2091
22868SOL    HW170045   3.788   7.697   4.473 -1.0310 -0.3738 -1.3582
22868SOL    HW270046   3.894   7.785   4.410 -2.3742  1.7059 -0.8483
22869SOL     OW70047   4.981   4.052   8.684  0.1328 -0.1190 -0.2091
22869SOL    HW170048   5.030   4.132   8.662 -0.9732  1.2380  1.9517
22869SOL    HW270049   4.968   4.057   8.779 -1.4464 -2.0261 -0.2618
22870SOL     OW70050   5.278   5.337   6.046 -0.0774 -0.2151  0.3622
22870SOL    HW170051   5.232   5.418   6.022  1.4448  0.2218 -1.2606
22870SOL    HW270052   5.209   5.271   6.052 -1.0099  0.5359 -1.4656
22871SOL     OW70053   6.741   6.986   8.048  0.0793 -0.3423 -0.1150
22871SOL    HW170054   6.749   6.907   7.995  2.2496  0.3618 -0.9305
22871SOL    HW270055   6.831   7.010   8.071 -0.4014  2.3804 -0.6606
22872SOL     OW70056   7.643   5.967   5.777  0.2650 -0.0306 -0.0671
22872SOL    HW170057   7.565   5.917   5.754 -0.8779  1.6670 -0.0520
22872SOL    HW270058   7.652   6.030   5.706  2.2103 -0.7853 -0.5535
22873SOL     OW70059   3.650   3.292  11.576 -0.1924  0.0005  0.2863
22873SOL    HW170060   3.569   3.293  11.526 -0.6349 -0.0654  0.9902
22873SOL    HW270061   3.636   3.227  11.645  0.5284 -0.1590  0.2927
22874SOL     OW70062   5.391   4.338  11.307 -0.1956 -0.0684 -0.5325
22874SOL    HW170063   5.480   4.330  11.273  0.0474  2.0257 -0.4905
22874SOL    HW270064   5.362   4.424  11.278 -1.9988 -0.4619 -0.0147
22875SOL     OW70065   7.776   7.726   6.867 -0.3530 -0.0679  0.3265
22875SOL    HW170066   7.744   7.681   6.789 -2.0589 -0.4094  1.1888
22875SOL    HW270067   7.864   7.691   6.880 -1.1075 -2.1682  0.1882
22876SOL     OW70068   3.082   7.075  12.216 -0.2488  0.1391 -0.0798
22876SOL    HW170069   3.015   7.141  12.234  0.1868  1.0027 -1.4773
22876SOL    HW270070   3.144   7.085  12.288 -0.6223  0.6754  0.1804
22877SOL     OW70071   3.205   3.346   6.039  0.3287 -0.0106 -0.2703
22877SOL    HW170072   3.292   3.305   6.035  0.5064  0.3138  0.1950
22877SOL    HW270073   3.149   3.278   6.076  0.4334 -0.1395 -0.3457
22878SOL     OW70074   1.940   6.000   9.252  0.3658  0.2501  0.7292
22878SOL    HW170075   1.915   6.086   9.220 -1.4015 -0.5519 -0.1745
22878SOL    HW270076   2.036   6.000   9.248  0.4613  2.4278  1.5555
22879SOL     OW70077   0.921   0.101   1.357 -0.6292  0.3487 -0.3722
22879SOL    HW170078   0.863   0.084   1.284  0.1212  0.0454 -0.9109
22879SOL    HW270079   0.899   0.191   1.384 -1.0365  0.3977 -0.8487
22880SOL     OW70080   7.898   1.031   1.763  0.2334 -0.5695 -0.2000
22880SOL    HW170081   7.864   0.945   1.787 -0.7711 -0.1723 -0.1309
22880SOL    HW270082   7.901   1.030   1.667 -0.3584 -0.4747 -0.2235
22881SOL     OW70083   4.150   2.781   3.090  0.1623 -0.1945  0.0107
22881SOL    HW170084   4.154   2.689   3.064 -0.8580 -0.2207 -0.1007
22881SOL    HW270085   4.182   2.829   3.014  2.0145 -0.4981  0.5487
22882SOL     OW70086   7.795   0.496   4.080  0.3074  0.1999 -0.0360
22882SOL    HW170087   7.879   0.481   4.124  0.2703  1.6447  0.5760
22882SOL    HW270088   7.779   0.416   4.030  2.5501  0.2812 -0.9955
22883SOL     OW70089   6.371   6.464   0.264  0.1610 -0.5041  0.4140
22883SOL    HW170090   6.442   6.404   0.237  0.6122 -1.0475  2.5892
22883SOL    HW270091   6.310   6.464   0.190  2.7577  0.6087 -1.9168
22884SOL     OW70092   1.549   3.209   2.496  0.1907 -0.4749  0.0717
22884SOL    HW170093   1.512   3.139   2.551  0.7504 -0.5993  0.2978
22884SOL    HW270094   1.527   3.184   2.407  0.0419 -0.7359  0.1817
22885SOL     OW70095   7.359   6.050   0.397  0.8794  0.1870  0.2645
22885SOL    HW170096   7.298   6.123   0.400  1.7685  0.9395  2.4179
22885SOL    HW270097   7.304   5.972   0.392 -0.1125  0.9232 -0.9819
22886SOL     OW70098   0.042   5.505  11.757  0.1090 -0.4750 -0.5344
22886SOL    HW170099   0.004   5.559  11.827 -0.7300 -1.0589 -0.5263
22886SOL    HW270100   0.116   5.556  11.725 -0.0716  0.2307  0.1402
22887SOL     OW70101   4.659   2.317  12.028  0.0505  0.1691  0.2662
22887SOL    HW170102   4.583   2.317  11.970 -0.6669  1.6876  1.1298
22887SOL    HW270103   4.624   2.291  12.113  0.5003  0.7669  0.6444
22888SOL     OW70104   7.892   5.572   4.022 -0.5047 -0.0238 -0.5709
22888SOL    HW170105   7.841   5.493   4.038 -1.1184  0.4339 -0.2622
22888SOL    HW270106   7.850   5.640   4.074  0.5826  0.3036 -0.0920
22889SOL     OW70107   5.705   1.261   7.934  0.2475 -0.2443 -0.3961
22889SOL    HW170108   5.690   1.348   7.898 -2.7814 -0.5798 -0.2238
22889SOL    HW270109   5.740   1.211   7.860  0.1834  0.6436 -1.0442
22890SOL     OW70110   5.744   5.941  10.986 -0.1723 -0.1412 -0.3599
22890SOL    HW170111   5.691   6.005  10.937  1.1809 -0.0787 -1.8558
22890SOL    HW270112   5.772   5.988  11.064 -1.1469  0.2900 -0.2557
22891SOL     OW70113   7.223   3.707   5.691  0.6678  0.5290  0.0496
22891SOL    HW170114   7.296   3.720   5.752  1.4948 -0.1868 -0.7714
22891SOL    HW270115   7.232   3.616   5.662 -0.3011  0.5672 -0.4024
22892SOL     OW70116   3.078   2.606  10.051 -0.4954 -0.0041 -0.3067
22892SOL    HW170117   3.085   2.518  10.016 -1.1888  0.6476 -2.2473
22892SOL    HW270118   3.071   2.662   9.974 -5.0742  1.2972  0.7424
22893SOL     OW70119   2.510   2.469  11.436 -0.0072  0.1904 -0.1799
22893SOL    HW170120   2.601   2.441  11.445 -0.1377  0.2077  1.5999
22893SOL    HW270121   2.478   2.424  11.358  1.4812  0.1033 -0.7764
22894SOL     OW70122   5.484   7.183   2.904  0.4583 -0.0084  0.3648
22894SOL    HW170123   5.424   7.237   2.956 -3.1680 -3.0625 -0.2057
22894SOL    HW270124   5.479   7.096   2.944  1.7248 -1.2108 -1.8853
22895SOL     OW70125   4.548   5.443   5.525 -0.6338  0.1933  0.2966
22895SOL    HW170126   4.555   5.439   5.430 -1.6121  1.2528  0.1594
22895SOL    HW270127   4.634   5.413   5.556 -0.9560 -2.1030 -0.8387
22896SOL     OW70128   6.771   5.389   8.647 -0.0056 -0.5295 -0.1681
22896SOL    HW170129   6.769   5.483   8.661 -0.8827 -0.7302  1.2826
22896SOL    HW270130   6.769   5.351   8.735 -1.7034 -1.8945 -0.7244
22897SOL     OW70131   2.241   3.880  10.162  0.0490  0.7324 -0.1257
22897SOL    HW170132   2.250   3.854  10.070  1.4266  1.4280 -0.2125
22897SOL    HW270133   2.219   3.799  10.208 -0.0786  0.2703 -0.9838
22898SOL     OW70134   4.887   3.136  12.129 -0.2428  0.3149  0.6268
22898SOL    HW170135   4.890   3.041  12.139 -0.2384  0.3138  0.6150
22898SOL    HW270136   4.813   3.152  12.070 -0.4458  0.3385  0.8869
22899SOL     OW70137   4.166   6.726  10.174 -0.2827 -0.5147  0.0562
22899SOL    HW170138   4.240   6.787  10.168  0.5677 -1.6146 -1.1075
22899SOL    HW270139   4.159   6.707  10.267  0.3384  0.2760  0.2837
22900SOL     OW70140   1.745   5.644   7.869  0.2586 -0.1196  0.2811
22900SOL    HW170141   1.698   5.564   7.890 -1.0875  0.4736 -0.3557
22900SOL    HW270142   1.720   5.706   7.937  0.4232  0.0958  0.1501
22901SOL     OW70143   2.366   1.418   7.768  0.3313 -0.3680 -0.0095
22901SOL    HW170144   2.330   1.364   7.839 -2.0929  1.5571  0.3554
22901SOL    HW270145   2.305   1.405   7.695  1.6760 -0.7737 -1.0863
22902SOL     OW70146   7.813   7.143   6.796  0.0322 -0.2305 -0.2083
22902SOL    HW170147   7.751   7.216   6.792 -0.8745 -0.9931 -0.2148
22902SOL    HW270148   7.814   7.118   6.889  2.3651  1.4635  0.3438
22903SOL     OW70149   3.744   6.727   4.410  0.1967  0.4884 -0.0132
22903SOL    HW170150   3.812   6.703   4.473 -0.3700 -0.8956  0.0901
22903SOL    HW270151   3.691   6.648   4.399 -1.7645  1.6934  0.3292
22904SOL     OW70152   2.283   5.289  12.194 -0.3273 -0.3734  0.4669
22904SOL    HW170153   2.226   5.367  12.195 -0.3642 -0.3877  1.8320
22904SOL    HW270154   2.223   5.216  12.178 -0.0028  0.0143 -3.2513
22905SOL     OW70155   7.112   4.301  10.938  0.3457  0.0784  0.5946
22905SOL    HW170156   7.033   4.314  10.885  1.0887  0.6089 -0.4442
22905SOL    HW270157   7.098   4.356  11.015  0.0441  0.8192  0.0279
22906SOL     OW70158   1.173   0.428   7.325  0.3838  0.1329  0.6488
22906SOL    HW170159   1.185   0.422   7.420 -1.0298 -1.3141  0.7869
22906SOL    HW270160   1.079   0.413   7.312  0.4803  0.7293 -0.9583
22907SOL     OW70161   5.998   7.505   6.854  0.0270 -0.2336 -0.2924
22907SOL    HW170162   5.941   7.481   6.781 -0.2103 -0.5922  0.0084
22907SOL    HW270163   6.027   7.421   6.891  0.4595 -0.0542 -0.2166
22908SOL     OW70164   7.578   2.782   6.492 -0.0799 -0.2890  0.1844
22908SOL    HW170165   7.509   2.841   6.463 -0.2484 -0.3955  0.3617
22908SOL    HW270166   7.638   2.838   6.541 -0.1798 -0.2434  0.2560
22909SOL     OW70167   4.228   4.179   6.344 -0.2174  0.5245  0.2089
22909SOL    HW170168   4.220   4.168   6.250  0.2934 -2.5202  0.4248
22909SOL    HW270169   4.265   4.267   6.355  0.2552  0.7254 -2.4482
22910SOL     OW70170   1.385   4.216   9.394  0.5228  0.0489  0.5870
22910SOL    HW170171   1.453   4.270   9.435  0.5767  0.6335 -0.2376
22910SOL    HW270172   1.330   4.279   9.346  1.0487 -0.6828 -1.0527
22911SOL     OW70173   5.101   4.754   0.938  0.1893 -0.1153 -0.0688
22911SOL    HW170174   5.077   4.672   0.896  0.0415 -0.0858 -0.0411
22911SOL    HW270175   5.150   4.727   1.016 -0.4046 -0.1920  0.2810
22912SOL     OW70176   4.577   6.816   9.275  0.5638  0.2770 -0.2478
22912SOL    HW170177   4.511   6.885   9.280  0.8469  0.5214  0.2976
22912SOL    HW270178   4.660   6.864   9.268  0.6556 -0.0319 -1.3840
22913SOL     OW70179   1.375   3.603   9.441 -0.1124  0.1990  0.5041
22913SOL    HW170180   1.335   3.597   9.527 -1.5494  1.4258 -0.0322
22913SOL    HW270181   1.421   3.687   9.442  0.6080 -0.1839  0.3614
22914SOL     OW70182   3.751   7.146   3.231  0.6233  0.1194  0.0087
22914SOL    HW170183   3.810   7.076   3.204  0.3264 -0.7969  1.6132
22914SOL    HW270184   3.692   7.105   3.294  0.1007  1.6887  0.5883
22915SOL     OW70185   7.161   3.288  10.237 -0.0587  0.4095 -0.4783
22915SOL    HW170186   7.090   3.265  10.297 -0.1580 -1.1564 -1.1568
22915SOL    HW270187   7.235   3.235  10.266  0.2531  0.5684 -0.9800
22916SOL     OW70188   4.034   1.396  11.480 -0.2095 -0.5576 -0.1807
22916SOL    HW170189   4.072   1.457  11.545 -4.0391 -1.2505  3.1090
22916SOL    HW270190   4.003   1.453  11.410  0.5888  0.7207  0.4437
22917SOL     OW70191   6.847   4.095   1.773  0.4296  0.1554  0.3472
22917SOL    HW170192   6.855   4.101   1.868  0.3340 -1.9667  0.5310
22917SOL    HW270193   6.916   4.034   1.746 -0.3958 -0.3286 -0.7786
22918SOL     OW70194   5.108   7.025   7.120  0.1094 -0.1068  0.3136
22918SOL    HW170195   5.159   7.088   7.069  2.2321 -0.7430  1.5493
22918SOL    HW270196   5.058   7.079   7.181  0.0568  0.4950 -0.2474
22919SOL     OW70197   7.220   7.728  11.373  0.2056 -0.5384 -0.1118
22919SOL    HW170198   7.230   7.742  11.468  0.3520 -1.9430  0.1139
22919SOL    HW270199   7.127   7.711  11.362 -0.1681  1.5434 -0.5423
22920SOL     OW70200   3.392   3.100   1.139  0.1442  0.5576 -0.3676
22920SOL    HW170201   3.449   3.164   1.097  0.4538  2.4030  2.5984
22920SOL    HW270202   3.327   3.152   1.185 -0.5664 -1.3086  0.8656
22921SOL     OW70203   4.300   7.434   7.703  0.9396  0.0920  0.2316
22921SOL    HW170204   4.368   7.413   7.767  1.2354  1.1565  0.2836
22921SOL    HW270205   4.340   7.498   7.644  0.5489 -0.6071 -0.8149
22922SOL     OW70206   2.028   5.256  11.903 -0.5381  0.5057  0.1555
22922SOL    HW170207   2.021   5.342  11.862  0.1514  0.7448  0.5090
22922SOL    HW270208   2.052   5.197  11.831 -0.3742  0.7301  0.0233
22923SOL     OW70209   6.237   4.760  10.520  0.5442 -0.5272  0.1890
22923SOL    HW170210   6.323   4.801  10.532  0.1776  0.2941  0.1146
22923SOL    HW270211   6.230   4.697  10.591 -0.3929  2.2174  2.7556
22924SOL     OW70212   6.801   2.007   4.292  0.0144  0.3751  0.5810
22924SOL    HW170213   6.738   2.079   4.299 -0.2623  0.0712  1.3145
22924SOL    HW270214   6.754   1.930   4.326  0.5694  0.0166  0.5566
22925SOL     OW70215   3.124   2.074   2.870  0.6034 -0.4751  0.0778
22925SOL    HW170216   3.137   1.981   2.890 -0.2537 -0.4811  0.6552
22925SOL    HW270217   3.051   2.100   2.925 -0.5440  0.0419 -1.6293
22926SOL     OW70218   1.764   5.543   0.903  0.5114  0.1494  0.1096
22926SOL    HW170219   1.839   5.520   0.849 -0.3856  0.6877 -1.4177
22926SOL    HW270220   1.747   5.635   0.884 -0.9978 -0.1597 -0.1954
22927SOL     OW70221   3.702   1.517   4.706 -0.1620  0.0875 -0.2789
22927SOL    HW170222   3.723   1.430   4.741  0.3492 -1.2820 -3.5472
22927SOL    HW270223   3.741   1.578   4.768  1.4852 -2.0946  0.9812
22928SOL     OW70224   4.708   4.802  12.334 -0.1955 -0.2246 -0.6280
22928SOL    HW170225   4.789   4.830  12.291  1.1930 -0.9645  1.3578
22928SOL    HW270226   4.735   4.782  12.424 -2.3950 -1.5222 -0.2002
22929SOL     OW70227   2.005   6.697   7.868 -0.0912 -0.0444 -0.3408
22929SOL    HW170228   1.990   6.607   7.896 -2.3453  0.3054 -0.2102
22929SOL    HW270229   2.032   6.743   7.947  0.2262 -0.4310 -0.2239
22930SOL     OW70230   7.923   7.373   9.728  0.0753  0.1656 -0.8979
22930SOL    HW170231   7.916   7.303   9.793  2.8520  0.7995  0.2406
22930SOL    HW270232   8.010   7.362   9.690 -0.6169  1.1896 -2.9382
22931SOL     OW70233   7.561   1.088   7.264  0.3591  0.2838 -0.0875
22931SOL    HW170234   7.530   1.029   7.333  1.9253 -0.8310 -0.2862
22931SOL    HW270235   7.482   1.133   7.233 -0.9281 -1.8452 -0.0564
22932SOL     OW70236   7.303   5.042   2.225 -0.3404  0.0590  0.3665
22932SOL    HW170237   7.237   5.059   2.158  1.5748  2.6794 -1.0462
22932SOL    HW270238   7.384   5.027   2.176  0.7350  0.0559  2.0506
22933SOL     OW70239   1.975   7.004  10.279  0.1183  0.3661  0.0933
22933SOL    HW170240   1.924   7.056  10.217  0.0971 -2.2905 -2.3073
22933SOL    HW270241   2.060   7.049  10.282  0.1112  0.6024 -1.8853
22934SOL     OW70242   3.295   1.789   9.806 -0.1146  0.0438  0.4536
22934SOL    HW170243   3.328   1.724   9.745 -0.6191 -0.1944  0.4316
22934SOL    HW270244   3.354   1.864   9.796 -0.1019 -0.0542 -0.2060
22935SOL     OW70245   2.149   2.294  10.594  0.2841  0.0441  0.4256
22935SOL    HW170246   2.204   2.239  10.538 -0.3003  2.0011 -2.2698
22935SOL    HW270247   2.065   2.248  10.597  0.1446  0.1783 -0.8583
22936SOL     OW70248   5.491   2.937   6.374 -0.1456  0.3085 -0.1448
22936SOL    HW170249   5.504   2.880   6.297 -0.0753  0.9335 -0.6030
22936SOL    HW270250   5.546   2.898   6.442 -0.7998 -0.7070 -0.1620
22937SOL     OW70251   7.835   2.311   3.454 -0.0468 -0.2938  0.4108
22937SOL    HW170252   7.872   2.362   3.382 -0.1376 -0.6973  0.0703
22937SOL    HW270253   7.858   2.220   3.433 -0.3463 -0.4456  0.7301
22938SOL     OW70254   3.940   2.499   9.058 -0.2943 -0.3286 -0.1866
22938SOL    HW170255   3.931   2.442   9.134  0.5910  1.4447  1.3401
22938SOL    HW270256   4.006   2.563   9.085 -0.0925  0.4689 -2.4092
22939SOL     OW70257   7.444   4.255   3.184  0.4538 -0.3474  0.2355
22939SOL    HW170258   7.350   4.262   3.168  0.4511  0.1212  0.4532
22939SOL    HW270259   7.473   4.186   3.124  0.0224 -0.3064 -0.0268
22940SOL     OW70260   0.537   0.705   7.340  0.4525  0.0092 -0.0452
22940SOL    HW170261   0.609   0.652   7.306 -0.0282 -0.3112 -0.5959
22940SOL    HW270262   0.463   0.644   7.345  0.4113  0.1487  1.2401
22941SOL     OW70263   2.136   2.600   3.961  0.0464  0.4338 -0.3930
22941SOL    HW170264   2.121   2.591   4.055  1.7559 -1.8918 -0.2410
22941SOL    HW270265   2.222   2.639   3.954 -0.6252  1.8634 -1.0546
22942SOL     OW70266   1.400   6.005   5.702 -0.1012  0.1813 -0.0674
22942SOL    HW170267   1.480   5.955   5.684  0.2752  0.3973  0.9194
22942SOL    HW270268   1.432   6.089   5.735 -0.6904 -0.3878  2.1434
22943SOL     OW70269   1.108   0.937   6.469  0.0946  0.2662  0.0789
22943SOL    HW170270   1.078   0.848   6.448 -0.5016  0.4338  0.1954
22943SOL    HW270271   1.055   0.963   6.544 -0.3147  1.0304 -0.4639
22944SOL     OW70272   6.511   5.904  11.624  0.0913 -0.1087  0.2484
22944SOL    HW170273   6.599   5.872  11.644  0.1753  0.4408  0.7793
22944SOL    HW270274   6.494   5.873  11.535  0.1261 -1.7039  0.7608
22945SOL     OW70275   2.301   2.074   7.402  0.4080 -0.3217 -0.2864
22945SOL    HW170276   2.304   2.020   7.481 -1.0224 -1.5529 -1.0118
22945SOL    HW270277   2.241   2.027   7.344  0.2557  1.3301 -1.5250
22946SOL     OW70278   3.551   2.031   6.603 -0.4891  0.3114 -0.2063
22946SOL    HW170279   3.542   1.983   6.686 -1.5577  0.3603 -0.2873
22946SOL    HW270280   3.471   2.011   6.555  0.5473 -0.5311 -1.6730
22947SOL     OW70281   6.927   2.438  11.941  0.4349  0.3483  0.1550
22947SOL    HW170282   7.008   2.477  11.975  0.5081  0.8264 -0.5591
22947SOL    HW270283   6.907   2.488  11.862  0.1027 -0.5596 -0.3490
22948SOL     OW70284   6.330   4.652   1.582  0.1853  0.3041 -0.2021
22948SOL    HW170285   6.313   4.665   1.675 -1.0789 -1.8177 -0.0708
22948SOL    HW270286   6.364   4.736   1.552  0.3072  1.1423  2.0895
22949SOL     OW70287   5.774   6.108  11.215  0.0160 -0.1378  0.2604
22949SOL    HW170288   5.745   6.123  11.305  0.2164 -0.0363  0.3088
22949SOL    HW270289   5.710   6.154  11.161 -0.4183 -0.6629  0.3252
22950SOL     OW70290   6.271   6.497   2.115  0.2860 -0.3232  0.0120
22950SOL    HW170291   6.262   6.446   2.196 -1.1209  0.1105  0.1553
22950SOL    HW270292   6.243   6.437   2.046  1.8969 -0.8356 -0.2325
22951SOL     OW70293   4.034   1.944   8.466  0.5442  0.1492 -0.0025
22951SOL    HW170294   3.996   2.026   8.433  0.9422 -0.1267 -1.1861
22951SOL    HW270295   4.074   1.969   8.549 -1.0341  0.7301  0.6127
22952SOL     OW70296   3.171   1.347   1.959  0.0303  0.0659  0.0110
22952SOL    HW170297   3.163   1.441   1.942  1.1915 -0.2037 -2.4571
22952SOL    HW270298   3.191   1.309   1.873 -0.6831 -2.4853  0.8929
22953SOL     OW70299   7.416   3.964   7.244 -0.6809 -0.0727  0.3871
22953SOL    HW170300   7.506   3.931   7.244 -0.9151 -0.9096  2.6850
22953SOL    HW270301   7.367   3.899   7.193  0.2267  1.3135 -2.4378
22954SOL     OW70302   2.881   5.948  10.498  0.2866 -0.9929 -0.4562
22954SOL    HW170303   2.835   5.960  10.415 -1.4276 -2.3390  0.2319
22954SOL    HW270304   2.942   5.877  10.482  0.9933 -0.2960 -0.9268
22955SOL     OW70305   5.467   3.317   6.993 -0.3270 -0.4991  0.2627
22955SOL    HW170306   5.422   3.243   7.033 -1.9004  0.1465 -0.2452
22955SOL    HW270307   5.491   3.374   7.067 -0.3335 -0.8527  0.5384
22956SOL     OW70308   6.966   2.703  10.045  0.5923  0.3892 -0.0913
22956SOL    HW170309   7.017   2.767   9.996 -0.5900  1.1250 -0.4054
22956SOL    HW270310   6.888   2.687   9.991 -0.9841  1.5867  1.6943
22957SOL     OW70311   0.014   2.522   5.526  0.5506 -0.3480  0.2813
22957SOL    HW170312   0.053   2.460   5.464 -2.2287 -0.0724 -1.9097
22957SOL    HW270313   0.059   2.605   5.509  0.0026 -0.3420 -1.2479
22958SOL     OW70314   7.386   3.769   4.051 -0.5319 -0.2286  0.7189
22958SOL    HW170315   7.373   3.863   4.059  0.9547 -0.0100  0.7078
22958SOL    HW270316   7.323   3.742   3.984 -3.0560  0.2355  2.7189
22959SOL     OW70317   0.574   5.753  12.070  0.4206 -0.7953  0.2407
22959SOL    HW170318   0.503   5.803  12.029  0.6937 -0.8110 -0.2621
22959SOL    HW270319   0.623   5.717  11.996  1.2754 -0.3340  0.5706
22960SOL     OW70320   2.776   0.833  10.277  0.3265  0.1703  0.0507
22960SOL    HW170321   2.782   0.782  10.196 -2.9589 -0.7440  0.2537
22960SOL    HW270322   2.772   0.767  10.347  1.2718  0.9030  0.8240
22961SOL     OW70323   6.095   2.998   3.632 -0.3721 -0.1486  0.1794
22961SOL    HW170324   6.008   3.036   3.641 -0.9328 -1.1394 -0.8586
22961SOL    HW270325   6.100   2.970   3.541  0.5172 -1.3327  0.5694
22962SOL     OW70326   0.063   6.024   5.197 -0.7833 -0.1935  0.3020
22962SOL    HW170327   0.118   6.101   5.216 -0.5276  0.8809 -3.7548
22962SOL    HW270328  -0.025   6.051   5.222 -0.5424  1.1007 -0.1401
22963SOL     OW70329   1.096   2.881   6.652 -0.1187  0.0229 -0.0124
22963SOL    HW170330   1.149   2.909   6.726 -0.6399 -0.9815  0.7723
22963SOL    HW270331   1.011   2.858   6.690 -0.8423  0.7564 -1.1181
22964SOL     OW70332   2.810   7.142   0.850  0.4381  0.2749 -0.8731
22964SOL    HW170333   2.874   7.071   0.856 -2.1545 -2.0877  2.4714
22964SOL    HW270334   2.726   7.098   0.837 -1.2209  2.7359  0.7824
22965SOL     OW70335   3.948   6.847   3.659  0.2124  0.0375 -0.3115
22965SOL    HW170336   4.003   6.833   3.582  0.0080 -1.3101 -0.2326
22965SOL    HW270337   4.000   6.816   3.733  0.4186  1.3524  0.1244
22966SOL     OW70338   0.143   2.984   0.264  0.0616 -0.4505  0.1979
22966SOL    HW170339   0.088   2.968   0.340 -1.3178 -0.0167 -0.6701
22966SOL    HW270340   0.219   2.926   0.276 -1.1985 -2.0501  0.7938
22967SOL     OW70341   0.942   4.645   1.391  0.0203  0.3641  0.7630
22967SOL    HW170342   0.871   4.583   1.410  0.0001  0.4745  1.0614
22967SOL    HW270343   0.897   4.727   1.373 -0.0371 -0.0562 -1.1742
22968SOL     OW70344   6.259   0.651   2.753 -0.4141  0.0426 -0.1032
22968SOL    HW170345   6.302   0.719   2.701 -1.1177  1.9382  1.6212
22968SOL    HW270346   6.326   0.622   2.815 -1.0246  1.7616  1.4536
22969SOL     OW70347   2.063   6.113   6.284 -0.1241  0.6602  0.4613
22969SOL    HW170348   2.116   6.134   6.207  1.3288 -0.4696  1.0981
22969SOL    HW270349   2.117   6.050   6.333 -0.9921  1.3754  2.4126
22970SOL     OW70350   5.839   4.631   6.132 -0.5105  0.1330  0.1047
22970SOL    HW170351   5.842   4.639   6.227  0.4533 -1.3922  0.2366
22970SOL    HW270352   5.894   4.556   6.112 -0.7133  0.3996 -1.6702
22971SOL     OW70353   5.937   0.748   9.021  0.4050 -0.8612 -0.0709
22971SOL    HW170354   5.860   0.697   8.996  0.3694 -0.4288 -0.8712
22971SOL    HW270355   6.005   0.722   8.959  1.2743 -2.0996  1.3494
22972SOL     OW70356   6.906   5.647   2.161 -0.0796 -0.5347 -0.0016
22972SOL    HW170357   6.967   5.574   2.159 -1.0084 -1.3185 -0.6924
22972SOL    HW270358   6.830   5.614   2.208 -0.5123 -0.0250 -0.3287
22973SOL     OW70359   6.882   7.485   8.699 -0.2837 -0.4258 -0.6119
22973SOL    HW170360   6.906   7.549   8.766 -1.1828 -0.2212 -0.4746
22973SOL    HW270361   6.873   7.536   8.619 -0.0811 -0.5357 -0.7077
22974SOL     OW70362   7.668   4.356   2.305 -0.1744  0.4845  0.0206
22974SOL    HW170363   7.732   4.287   2.320 -1.4012 -0.8726 -0.7252
22974SOL    HW270364   7.585   4.309   2.292 -1.0010  2.0857 -0.7336
22975SOL     OW70365   3.808   2.771   8.103 -0.2603  0.1448  0.3910
22975SOL    HW170366   3.807   2.691   8.156 -0.3712  1.6056  2.7311
22975SOL    HW270367   3.872   2.827   8.145 -0.6255  1.5539 -0.8351
22976SOL     OW70368   1.867   6.652   4.050 -0.0785 -0.3156 -0.6267
22976SOL    HW170369   1.784   6.653   4.001 -1.0974 -1.0923  0.9701
22976SOL    HW270370   1.845   6.693   4.134  1.4916  0.5733 -0.6154
22977SOL     OW70371   3.954   6.181   9.577 -0.3545 -0.2412 -0.0825
22977SOL    HW170372   3.862   6.197   9.596  0.0952  1.4429  0.7937
22977SOL    HW270373   3.975   6.241   9.505  0.1337 -0.4053 -0.0829
22978SOL     OW70374   3.248   0.109  10.380 -0.1498 -0.3220 -0.2948
22978SOL    HW170375   3.235   0.193  10.424 -0.1415 -1.4615  2.0245
22978SOL    HW270376   3.159   0.076  10.367 -0.1960  0.3021 -1.8959
22979SOL     OW70377   7.793   7.824   9.663  0.5333 -0.2050 -0.4048
22979SOL    HW170378   7.752   7.865   9.587 -0.2059 -0.7127 -0.2836
22979SOL    HW270379   7.873   7.784   9.628  1.0593  0.9832 -0.5956
22980SOL     OW70380   3.515   1.328   9.902 -0.4024  0.6405 -0.4351
22980SOL    HW170381   3.516   1.289   9.989  0.3119  1.8964  0.1529
22980SOL    HW270382   3.573   1.273   9.850 -0.8489 -0.1320 -0.1320
22981SOL     OW70383   6.675   6.590   6.155  0.1480  0.2077  0.4345
22981SOL    HW170384   6.702   6.677   6.182 -1.0290  0.3627  1.2105
22981SOL    HW270385   6.667   6.595   6.060  3.4057 -0.0581  0.0518
22982SOL     OW70386   6.430   5.935   5.939  0.1727  0.3710  0.5239
22982SOL    HW170387   6.337   5.954   5.948 -0.3124 -0.9490 -1.2399
22982SOL    HW270388   6.463   6.004   5.881 -0.1807 -0.3969 -0.5999
22983SOL     OW70389   0.006   6.080  10.118  0.0004  0.3812  0.2463
22983SOL    HW170390   0.047   5.999  10.090  0.6295  0.7788 -0.0072
22983SOL    HW270391   0.078   6.141  10.130 -0.5286  1.1815 -0.4984
22984SOL     OW70392   5.483   2.869   5.835  0.1633 -0.1109 -0.0781
22984SOL    HW170393   5.432   2.941   5.873  1.5004 -0.0931  1.8150
22984SOL    HW270394   5.492   2.806   5.907  2.1668 -0.4314 -0.5608
22985SOL     OW70395   3.585   7.645   9.942  0.2649 -0.0795  0.4148
22985SOL    HW170396   3.657   7.599   9.986 -0.0888  0.2288  1.3398
22985SOL    HW270397   3.624   7.727   9.911  1.2636 -1.5219 -2.4840
22986SOL     OW70398   6.158   2.590  10.144  0.2366  0.4985 -0.3502
22986SOL    HW170399   6.152   2.654  10.074  0.9920  0.7771 -0.1724
22986SOL    HW270400   6.096   2.621  10.210 -0.2094  0.4321 -0.7303
22987SOL     OW70401   2.998   6.832   2.980 -0.2497 -0.3023  0.8607
22987SOL    HW170402   2.936   6.845   2.908 -1.3445 -1.2089  1.6126
22987SOL    HW270403   3.051   6.912   2.980 -0.8737  0.1409 -0.3210
22988SOL     OW70404   5.497   2.349   9.518 -0.4288  0.0396 -0.5453
22988SOL    HW170405   5.406   2.350   9.547  0.2256 -0.2413  1.7326
22988SOL    HW270406   5.535   2.274   9.563  1.4501  1.4741  0.4263
22989SOL     OW70407   3.355   7.639  10.247  0.4177 -0.4770 -0.2907
22989SOL    HW170408   3.417   7.571  10.221 -0.3573 -1.4303  0.2944
22989SOL    HW270409   3.272   7.593  10.258  0.1258  0.3536  1.2870
22990SOL     OW70410   2.636   5.054   7.928  0.0406  0.2217 -0.0853
22990SOL    HW170411   2.589   5.002   7.994  0.2579 -0.4228 -0.4243
22990SOL    HW270412   2.596   5.141   7.932 -0.0439  0.1552  0.8030
22991SOL     OW70413   4.650   3.749   2.548 -0.2058 -0.5458  0.1647
22991SOL    HW170414   4.620   3.691   2.479 -1.6325  0.3867 -0.0479
22991SOL    HW270415   4.602   3.721   2.626 -0.2838 -0.1892  0.2491
22992SOL     OW70416   2.520   6.171  11.033  0.0209  0.3995  0.0966
22992SOL    HW170417   2.491   6.250  11.079  1.6225  1.1957 -0.1740
22992SOL    HW270418   2.475   6.099  11.077 -0.8500  1.3847  0.8802
22993SOL     OW70419   5.143   6.090   2.228 -1.1225 -0.0450 -0.0936
22993SOL    HW170420   5.138   6.012   2.283  0.7554 -0.7348 -0.8268
22993SOL    HW270421   5.061   6.089   2.178 -1.5988 -0.9390  0.6687
22994SOL     OW70422   1.540   4.509   5.387 -0.8756 -0.6046 -0.2901
22994SOL    HW170423   1.544   4.603   5.369 -2.1693 -0.1700  1.3930
22994SOL    HW270424   1.448   4.486   5.375 -0.7152 -1.4879  0.0876
22995SOL     OW70425   1.441   5.059   9.505 -0.4435  0.2620 -0.2335
22995SOL    HW170426   1.463   5.107   9.585 -0.8194 -1.0203  0.6558
22995SOL    HW270427   1.415   5.128   9.443  0.6353  1.3460  0.4572
22996SOL     OW70428   3.726   0.030   8.180  0.0806 -0.1605  0.6290
22996SOL    HW170429   3.649  -0.024   8.159  1.5325 -1.5495 -1.4692
22996SOL    HW270430   3.697   0.120   8.163 -1.0902 -0.6457 -0.0771
22997SOL     OW70431   7.651   6.439   6.765 -0.0014  0.1890  0.6014
22997SOL    HW170432   7.592   6.480   6.702  2.4144  0.5782 -1.5510
22997SOL    HW270433   7.601   6.364   6.799 -1.9668  0.8974 -0.5532
22998SOL     OW70434   3.946   2.340   2.565  0.1478  0.1220  0.1343
22998SOL    HW170435   3.852   2.348   2.550  0.0090 -1.0414  0.2666
22998SOL    HW270436   3.954   2.334   2.660  0.6927  3.6668  0.4516
22999SOL     OW70437   3.264   5.946   4.707  0.6139 -0.4585 -0.3298
22999SOL    HW170438   3.278   5.901   4.790  2.4203 -1.9590 -1.3823
22999SOL    HW270439   3.329   6.017   4.706 -1.1656  1.3033  0.6200
23000SOL     OW70440   1.171   7.565   1.490  0.1984 -0.4189  0.0181
23000SOL    HW170441   1.164   7.573   1.395  0.6027 -0.6385 -0.0308
23000SOL    HW270442   1.229   7.637   1.516  2.5963 -2.1042 -0.2537
23001SOL     OW70443   0.371   6.650   3.732  0.2086 -0.0308  1.1954
23001SOL    HW170444   0.453   6.683   3.769  1.8141 -1.7396 -0.5575
23001SOL    HW270445   0.371   6.557   3.753 -0.1618 -0.4990 -0.6580
23002SOL     OW70446   4.104   2.643   7.091  0.3164  0.2712 -0.4772
23002SOL    HW170447   4.022   2.644   7.140 -0.4938  1.4455 -1.7673
23002SOL    HW270448   4.151   2.565   7.123 -1.4021 -0.5739  0.0968
23003SOL     OW70449   5.252   5.802   0.715 -0.3419 -0.1358 -0.2193
23003SOL    HW170450   5.167   5.764   0.738 -0.2125 -0.7533 -0.7224
23003SOL    HW270451   5.230   5.877   0.660 -0.5825  0.1845  0.3009
23004SOL     OW70452   2.950   1.604   8.977  0.2921  0.0593 -0.1275
23004SOL    HW170453   2.977   1.518   9.009 -0.3628  0.1334  0.6714
23004SOL    HW270454   2.865   1.619   9.019  0.9284  1.5990  0.6801
23005SOL     OW70455   2.024   7.331  10.403 -0.4426 -0.2175  0.1461
23005SOL    HW170456   2.078   7.266  10.448 -1.3345 -1.7508 -0.8856
23005SOL    HW270457   2.041   7.413  10.449  1.7474 -0.9067  0.6515
23006SOL     OW70458   1.073   6.895   2.318 -0.2873 -0.6384  0.6237
23006SOL    HW170459   1.121   6.937   2.389 -3.5574  1.0984  2.0405
23006SOL    HW270460   1.085   6.953   2.243  0.4589 -0.6629  0.7243
23007SOL     OW70461   0.478   5.709  10.903  0.1998 -0.3161  0.3117
23007SOL    HW170462   0.418   5.729  10.975 -0.9931  1.3851 -1.0804
23007SOL    HW270463   0.564   5.702  10.945 -0.4281  0.8307  1.8841
23008SOL     OW70464   7.202   1.044   8.200  0.5811  0.0546  0.0350
23008SOL    HW170465   7.200   1.110   8.270  2.4524  0.0562  0.1296
23008SOL    HW270466   7.211   0.961   8.246 -3.4602 -0.5790  0.0181
23009SOL     OW70467   7.907   6.996   8.426 -0.1062 -0.2375  0.1061
23009SOL    HW170468   7.900   7.026   8.517 -1.6377 -0.6827  0.1609
23009SOL    HW270469   7.819   6.964   8.404 -0.1302  1.0348 -1.9542
23010SOL     OW70470   3.721   5.099   8.983 -0.2590  0.3400  0.1822
23010SOL    HW170471   3.766   5.026   9.025 -1.2217 -0.2677  0.1965
23010SOL    HW270472   3.777   5.124   8.909  0.7410  0.4817  0.9725
23011SOL     OW70473   4.181   7.605   9.445 -0.0377 -0.3580  0.3245
23011SOL    HW170474   4.161   7.699   9.447  2.3844  0.3069 -1.9538
23011SOL    HW270475   4.197   7.583   9.537 -0.3420  1.5260  0.8870
23012SOL     OW70476   2.162   4.090  10.302  0.5143  0.6302  0.1467
23012SOL    HW170477   2.204   4.162  10.253 -0.9793  1.3123 -0.1760
23012SOL    HW270478   2.201   4.011  10.264 -0.1118  1.1607 -1.7523
23013SOL     OW70479   5.871   2.641  10.956  0.3754  0.2305  0.3865
23013SOL    HW170480   5.951   2.605  10.995 -0.6324 -0.4205  1.9447
23013SOL    HW270481   5.891   2.734  10.941  1.9475 -0.2558 -0.7811
23014SOL     OW70482   5.280   3.146   9.470 -0.0332  0.3193 -0.2101
23014SOL    HW170483   5.193   3.138   9.431  0.4011  1.1269 -1.4146
23014SOL    HW270484   5.328   3.070   9.438 -0.3043 -0.1611  0.5078
23015SOL     OW70485   2.209   2.509   0.154 -0.0022 -0.3171  0.4712
23015SOL    HW170486   2.132   2.531   0.101 -0.6843 -0.3506  1.4160
23015SOL    HW270487   2.281   2.504   0.091 -0.8949 -0.9463 -0.5314
23016SOL     OW70488   3.516   4.992  12.192  0.2561  0.2241  0.0916
23016SOL    HW170489   3.559   4.990  12.277 -1.1836  1.2971  0.8803
23016SOL    HW270490   3.558   4.921  12.143  1.5673 -0.0015  1.4439
23017SOL     OW70491   7.102   6.740   2.926  0.5987 -0.1172 -0.4922
23017SOL    HW170492   7.097   6.645   2.939 -0.3433  0.0815  0.8542
23017SOL    HW270493   7.188   6.764   2.958  0.2642 -0.3320  0.5939
23018SOL     OW70494   6.489   7.028   3.606 -0.5683 -0.3416 -0.4708
23018SOL    HW170495   6.399   7.015   3.576 -1.4138  1.2374  1.2159
23018SOL    HW270496   6.489   6.992   3.695  0.8787 -1.6045 -0.9482
23019SOL     OW70497   4.282   5.505   8.169 -0.4611 -0.3483  0.3083
23019SOL    HW170498   4.193   5.490   8.202  0.1684 -0.4927  2.0658
23019SOL    HW270499   4.277   5.589   8.123 -1.2076  0.3740  1.6494
23020SOL     OW70500   2.177   5.029   2.341  0.3102 -0.2679  0.2767
23020SOL    HW170501   2.215   4.973   2.408  0.2904 -0.6969 -0.0625
23020SOL    HW270502   2.213   5.116   2.359 -1.1535  0.0411  1.9947
23021SOL     OW70503   1.616   6.483   0.245  0.1083  0.4955 -0.0128
23021SOL    HW170504   1.562   6.422   0.294  1.0511  1.0674  1.8367
23021SOL    HW270505   1.606   6.456   0.154 -1.6427 -0.6683  0.4753
23022SOL     OW70506   5.446   3.105   3.316  0.5781 -0.4073 -0.4010
23022SOL    HW170507   5.491   3.102   3.232  0.0857  2.3964 -0.8845
23022SOL    HW270508   5.469   3.191   3.352 -1.0114 -0.6190  1.2698
23023SOL     OW70509   1.402   5.673   3.972  0.8270  0.1915 -0.1759
23023SOL    HW170510   1.372   5.715   4.053  0.6265 -0.1995 -0.0482
23023SOL    HW270511   1.422   5.747   3.914  1.4431  0.4908  0.3913
23024SOL     OW70512   0.462   1.060   0.434  0.1125  0.3099  0.5547
23024SOL    HW170513   0.385   1.016   0.397 -0.3883  0.8720  0.9157
23024SOL    HW270514   0.524   0.989   0.450 -0.5844 -0.2378  0.9000
23025SOL     OW70515   6.748   7.921   3.140 -0.2377 -0.1334 -0.3351
23025SOL    HW170516   6.828   7.968   3.117  0.7505 -1.3828  0.4459
23025SOL    HW270517   6.717   7.964   3.220 -1.6142  1.7787 -1.8109
23026SOL     OW70518   6.197   4.988   8.720 -0.0456  0.3031 -0.5305
23026SOL    HW170519   6.259   4.985   8.793  0.2193 -0.4039 -0.7781
23026SOL    HW270520   6.114   4.959   8.758  0.6469 -2.6708 -1.0340
23027SOL     OW70521   5.769   2.971  11.020  0.1392 -0.0622 -0.4504
23027SOL    HW170522   5.688   2.938  11.059 -0.6844  1.0058 -1.1795
23027SOL    HW270523   5.752   2.972  10.926  1.0018  0.1981 -0.6173
23028SOL     OW70524   3.670   7.419   5.665  0.2168  0.2424 -0.4226
23028SOL    HW170525   3.712   7.339   5.699  0.0090  0.3256  0.0405
23028SOL    HW270526   3.693   7.420   5.572  1.4745  0.4240 -0.1370
23029SOL     OW70527   1.170   6.222   6.920 -0.1774  0.3017 -0.4477
23029SOL    HW170528   1.158   6.257   7.008 -1.8759  2.1040 -1.3285
23029SOL    HW270529   1.110   6.148   6.915  0.1607 -0.0078 -0.0089
23030SOL     OW70530   0.277   4.718   8.898  0.3317  0.4436 -0.6384
23030SOL    HW170531   0.208   4.680   8.844 -3.1496  0.4240  3.3538
23030SOL    HW270532   0.313   4.644   8.946  0.8825  0.8974 -0.3447
23031SOL     OW70533   0.842   1.060   1.756  0.1860  0.2781  0.2187
23031SOL    HW170534   0.845   1.042   1.662  0.3037  1.3787 -0.0017
23031SOL    HW270535   0.922   1.021   1.790 -0.2245 -0.7921 -0.0053
23032SOL     OW70536   3.429   5.367   8.942  0.5281 -0.7978 -0.0359
23032SOL    HW170537   3.495   5.395   9.007  0.0770 -0.6865  0.3808
23032SOL    HW270538   3.414   5.445   8.889 -0.5356 -0.2966  0.9608
23033SOL     OW70539   1.196   6.464   5.726  0.6046  0.0966 -0.2922
23033SOL    HW170540   1.152   6.532   5.675  1.0765  0.1659 -0.6169
23033SOL    HW270541   1.191   6.386   5.671 -0.8960 -0.4338  0.5417
23034SOL     OW70542   0.919   4.074  11.088 -0.3067  0.2254 -0.0271
23034SOL    HW170543   0.952   4.164  11.084 -1.0567  0.5624  1.0106
23034SOL    HW270544   0.963   4.036  11.164  0.6573 -0.5845 -0.9451
23035SOL     OW70545   2.664   6.430  12.158 -0.4670  0.0407 -0.4889
23035SOL    HW170546   2.610   6.444  12.236  0.3237  4.4767 -0.5276
23035SOL    HW270547   2.614   6.469  12.086  0.6599 -0.2297 -1.4625
23036SOL     OW70548   7.327   4.323   3.445  0.1574 -0.4555 -0.1131
23036SOL    HW170549   7.327   4.415   3.471  2.8013 -0.8365  1.6972
23036SOL    HW270550   7.365   4.322   3.357  1.2084  0.1531  0.3100
23037SOL     OW70551   0.390   4.332   3.066  0.4662  0.0309  0.2035
23037SOL    HW170552   0.326   4.367   3.004  0.3537  0.6921  0.6762
23037SOL    HW270553   0.473   4.370   3.038  1.0776 -2.4616 -1.6930
23038SOL     OW70554   1.192   4.949  12.135  0.3019 -0.4769  0.5088
23038SOL    HW170555   1.096   4.954  12.137  0.3291  0.5068  2.9189
23038SOL    HW270556   1.217   4.934  12.226  2.5268  1.3681  0.2896
23039SOL     OW70557   5.988   2.866  10.808 -0.6863  0.0305  0.3555
23039SOL    HW170558   5.933   2.918  10.750  1.3513 -0.9437 -2.7360
23039SOL    HW270559   6.074   2.909  10.803 -0.4585 -0.0164  2.8683
23040SOL     OW70560   1.634   2.826   5.424 -0.1381 -0.5347  0.0410
23040SOL    HW170561   1.691   2.837   5.348  1.8536  1.8246  1.7456
23040SOL    HW270562   1.658   2.741   5.460  3.2781  0.7929  1.3074
23041SOL     OW70563   1.688   4.151   0.398 -0.3113  0.1079 -0.7707
23041SOL    HW170564   1.751   4.079   0.402 -1.0203 -0.5011 -0.3217
23041SOL    HW270565   1.719   4.206   0.326  0.6610 -0.2430 -0.6355
23042SOL     OW70566   7.237   3.626   3.787  0.1022 -0.3385  0.1571
23042SOL    HW170567   7.293   3.590   3.718  1.2185  0.2466  0.7319
23042SOL    HW270568   7.151   3.637   3.745  0.2439 -1.7903 -0.5769
23043SOL     OW70569   6.096   0.867   4.810  0.1649  0.4055 -0.5411
23043SOL    HW170570   6.097   0.856   4.905 -0.7801  1.5188 -0.3801
23043SOL    HW270571   6.045   0.947   4.795 -0.8315 -0.4530 -2.0579
23044SOL     OW70572   7.082   3.402  11.005  0.1623  0.1786  0.3755
23044SOL    HW170573   7.105   3.425  11.096  1.1132  0.7058  0.0193
23044SOL    HW270574   7.005   3.455  10.986 -0.9130 -0.9996  1.3349
23045SOL     OW70575   3.842   5.754   3.463 -0.3935  0.3786  0.5785
23045SOL    HW170576   3.757   5.718   3.488 -0.8728  0.5275 -0.7440
23045SOL    HW270577   3.852   5.729   3.371  1.5211 -0.6379  1.0017
23046SOL     OW70578   5.145   5.854   3.027 -0.7341  0.4076 -0.1046
23046SOL    HW170579   5.222   5.800   3.011 -0.7268  0.4076 -0.0674
23046SOL    HW270580   5.147   5.919   2.956 -0.5025  0.6297  0.1017
23047SOL     OW70581   4.403   2.069  10.338  0.2083  0.1988 -0.2656
23047SOL    HW170582   4.309   2.055  10.348  0.3111 -0.7139 -0.4301
23047SOL    HW270583   4.418   2.061  10.244  0.6846 -1.4142 -0.0798
23048SOL     OW70584   7.459   2.411   6.551 -0.1917 -0.0215 -0.0740
23048SOL    HW170585   7.383   2.470   6.555 -1.8859 -1.9539 -1.4825
23048SOL    HW270586   7.512   2.445   6.479 -1.4661 -0.4872 -1.2764
23049SOL     OW70587   0.214   6.974   4.778  0.3393  0.2044 -0.3800
23049SOL    HW170588   0.224   7.051   4.722  2.0780 -0.2739 -0.7917
23049SOL    HW270589   0.296   6.970   4.828 -0.4114 -0.4479  0.8300
23050SOL     OW70590   4.901   3.679   4.174 -0.1280  0.0890  0.3090
23050SOL    HW170591   4.839   3.725   4.230  0.3019  0.7443  0.2601
23050SOL    HW270592   4.871   3.699   4.085  1.0272  1.7253  0.2308
23051SOL     OW70593   6.914   6.052   2.338 -0.6555 -0.3966 -0.3180
23051SOL    HW170594   6.989   5.993   2.337  0.0220  0.4317  0.1816
23051SOL    HW270595   6.900   6.076   2.246  1.3675  1.4812 -0.2095
23052SOL     OW70596   5.404   1.392  11.706 -0.2907  0.0670  0.3689
23052SOL    HW170597   5.459   1.314  11.709 -1.0411 -0.4780 -0.0015
23052SOL    HW270598   5.370   1.395  11.617 -2.1134 -0.4830  1.0078
23053SOL     OW70599   5.222   6.868   4.015  0.3063 -0.0643  0.4053
23053SOL    HW170600   5.129   6.848   4.003  0.1653  1.3754 -1.4613
23053SOL    HW270601   5.260   6.787   4.049 -1.0558 -1.8303 -1.9448
23054SOL     OW70602   4.995   6.902   5.523  0.0260  0.5611 -0.9495
23054SOL    HW170603   5.044   6.984   5.512 -0.5867  1.1030  0.1361
23054SOL    HW270604   5.053   6.846   5.575 -0.2744  1.0051 -0.1175
23055SOL     OW70605   3.698   3.459   4.703 -0.7480 -0.1848  0.3173
23055SOL    HW170606   3.619   3.486   4.749  0.0574  0.0102  1.6404
23055SOL    HW270607   3.735   3.540   4.669 -0.7707 -0.1933  0.2727
23056SOL     OW70608   2.622   0.681   0.186 -0.6346 -0.1111  0.0990
23056SOL    HW170609   2.585   0.664   0.272 -1.4410  0.6327 -0.0813
23056SOL    HW270610   2.700   0.626   0.181  0.5589  1.2770  2.0825
23057SOL     OW70611   1.876   6.663   2.996  0.5981  0.1474 -0.3695
23057SOL    HW170612   1.901   6.755   2.992 -0.3933  0.4010 -1.0844
23057SOL    HW270613   1.953   6.616   2.964  0.3303  0.8779 -2.1613
23058SOL     OW70614   3.980   2.200  10.392 -0.7419 -0.0221  0.1753
23058SOL    HW170615   4.054   2.141  10.378 -0.8313  0.2121 -1.5039
23058SOL    HW270616   3.963   2.196  10.486  0.0911 -1.6511  0.2873
23059SOL     OW70617   0.168   4.456   8.355 -0.3743  0.8112  0.8525
23059SOL    HW170618   0.200   4.414   8.276 -0.9445  1.7000  0.1231
23059SOL    HW270619   0.075   4.473   8.337  0.0557  3.3156  0.6632
23060SOL     OW70620   5.290   4.149   9.292 -0.5430 -0.0930 -0.0226
23060SOL    HW170621   5.232   4.076   9.312  0.4047 -0.8518  0.0507
23060SOL    HW270622   5.233   4.218   9.260 -1.3531 -1.2431 -1.1339
23061SOL     OW70623   2.381   7.879   7.922  0.5939  0.0694 -0.1959
23061SOL    HW170624   2.377   7.794   7.967  1.7190 -0.3197 -0.7912
23061SOL    HW270625   2.435   7.934   7.979  1.5341 -0.2456 -0.7578
23062SOL     OW70626   2.123   2.467   1.566  0.2459  0.0217  0.5249
23062SOL    HW170627   2.217   2.452   1.576  0.3084 -0.2704 -0.3618
23062SOL    HW270628   2.089   2.383   1.534 -0.0736  0.5192 -0.5075
23063SOL     OW70629   3.444   4.662  12.267  0.0813  0.3038 -0.4918
23063SOL    HW170630   3.390   4.585  12.283 -0.3746  0.4698 -1.1979
23063SOL    HW270631   3.532   4.628  12.255 -0.3817 -0.3102 -2.5146
23064SOL     OW70632   1.575   6.188   5.316 -0.0567 -0.1806 -0.6853
23064SOL    HW170633   1.650   6.131   5.299 -0.3159 -0.5793 -0.5119
23064SOL    HW270634   1.600   6.239   5.393  0.8863  1.2097 -1.8410
23065SOL     OW70635   0.753   5.218  10.209 -0.6588 -0.3185 -0.2710
23065SOL    HW170636   0.810   5.156  10.164  0.6778  0.4667  0.2766
23065SOL    HW270637   0.798   5.237  10.291 -2.6384 -1.0844  1.0731
23066SOL     OW70638   4.428   0.177  10.798 -0.0488  0.5541  0.4430
23066SOL    HW170639   4.346   0.128  10.803 -0.6109  1.1421 -1.7615
23066SOL    HW270640   4.489   0.116  10.755 -0.1142  0.9884 -0.2882
23067SOL     OW70641   2.770   1.439   9.591 -0.1652 -0.0092  0.6598
23067SOL    HW170642   2.678   1.427   9.568  0.4436  0.0928 -2.1871
23067SOL    HW270643   2.784   1.534   9.583 -0.2244  0.3022  3.2011
23068SOL     OW70644   4.865   3.342   1.743 -0.2938  0.2440  0.1185
23068SOL    HW170645   4.879   3.407   1.812 -0.2429  0.7313 -0.3439
23068SOL    HW270646   4.772   3.351   1.721 -0.1119  0.7006 -0.4795
23069SOL     OW70647   0.263   2.395   3.288  0.5830  0.0279 -0.4004
23069SOL    HW170648   0.233   2.420   3.375  0.4468 -0.9332 -0.1528
23069SOL    HW270649   0.289   2.477   3.247 -1.9567  0.8536 -0.4801
23070SOL     OW70650   1.399   6.735   3.529 -0.5574 -0.1433  0.3925
23070SOL    HW170651   1.381   6.790   3.604 -0.5039  1.8502 -0.9810
23070SOL    HW270652   1.426   6.796   3.460  0.3906 -1.9744 -0.9479
23071SOL     OW70653   7.861   4.329   4.216  0.4318 -0.1621  0.5457
23071SOL    HW170654   7.893   4.360   4.132  0.4224 -0.5440  0.4029
23071SOL    HW270655   7.769   4.355   4.217  0.2378 -0.8153  0.1223
23072SOL     OW70656   0.170   5.144   0.888 -0.0163 -0.0032 -0.6224
23072SOL    HW170657   0.131   5.144   0.801  0.5572  0.0759 -0.8810
23072SOL    HW270658   0.157   5.055   0.920 -0.0275 -0.0940 -0.8803
23073SOL     OW70659   0.982   3.044   5.961 -0.0129 -0.1943  0.2291
23073SOL    HW170660   1.008   2.955   5.988  0.1280 -0.2467 -0.0810
23073SOL    HW270661   0.887   3.043   5.966  0.0297  0.0465  1.5293
23074SOL     OW70662   6.733   5.846   7.279  0.8225  0.0843 -0.0293
23074SOL    HW170663   6.807   5.907   7.284  0.9461 -0.1436  1.0343
23074SOL    HW270664   6.771   5.764   7.247  0.9683  0.0565  0.2199
23075SOL     OW70665   5.747   4.140   2.569  0.6761  0.0106 -0.0287
23075SOL    HW170666   5.770   4.224   2.610 -0.1547 -0.3707  1.2648
23075SOL    HW270667   5.677   4.161   2.508  0.5128  0.2693  0.2464
23076SOL     OW70668   3.463   6.655   3.215  0.1571 -0.0976  0.3350
23076SOL    HW170669   3.525   6.713   3.171  1.3411 -0.1292  1.8424
23076SOL    HW270670   3.380   6.669   3.171  0.9271  1.0498 -0.8009
23077SOL     OW70671   1.504   0.561   0.796  0.1109  0.1804 -0.1536
23077SOL    HW170672   1.574   0.534   0.855 -0.8268 -0.5423  0.6521
23077SOL    HW270673   1.429   0.507   0.820 -1.3378  2.2778  0.3264
23078SOL     OW70674   0.457   2.732   4.130  0.1850  0.2761  0.1732
23078SOL    HW170675   0.538   2.738   4.179  1.0922 -1.0914 -1.0731
23078SOL    HW270676   0.463   2.648   4.083 -1.8878  0.1870 -0.0443
23079SOL     OW70677   7.534   3.869   9.944  0.7876  0.4957  0.0314
23079SOL    HW170678   7.535   3.903   9.854  2.1339 -2.4627 -1.2326
23079SOL    HW270679   7.444   3.838   9.956  0.3476  1.7433  0.1014
23080SOL     OW70680   6.038   7.477   9.613  0.3981 -0.0600 -0.6702
23080SOL    HW170681   6.087   7.423   9.551 -0.8415  0.5506 -2.2678
23080SOL    HW270682   6.093   7.553   9.628  0.9805 -0.5023 -0.5213
23081SOL     OW70683   6.056   7.175   6.651 -0.4656  0.1817 -0.4119
23081SOL    HW170684   5.981   7.227   6.681 -0.6816  1.1961 -2.5626
23081SOL    HW270685   6.094   7.226   6.580  2.6730 -0.0252  0.9550
23082SOL     OW70686   5.539   5.345   6.913  0.0515 -0.1837 -0.3269
23082SOL    HW170687   5.597   5.281   6.872 -0.6182 -0.5590 -0.7108
23082SOL    HW270688   5.470   5.360   6.847 -0.4117  0.0692  0.2061
23083SOL     OW70689   4.813   2.021   1.902  0.0882  0.4760 -0.4597
23083SOL    HW170690   4.794   2.071   1.981 -1.0815 -2.7787  1.5198
23083SOL    HW270691   4.907   2.032   1.889  0.4822  0.4439  1.9416
23084SOL     OW70692   3.226   4.631   3.081 -0.4639  0.2726  0.2206
23084SOL    HW170693   3.136   4.620   3.049 -0.5816 -0.4813  0.7856
23084SOL    HW270694   3.229   4.581   3.163  1.3455 -2.3603 -1.3112
23085SOL     OW70695   4.380   7.131   4.726  0.6620  0.2548  0.2055
23085SOL    HW170696   4.369   7.201   4.662  0.5160 -0.1609 -0.2234
23085SOL    HW270697   4.467   7.095   4.708  0.6475  0.1779  0.2866
23086SOL     OW70698   1.908   3.969   1.340  0.3157 -0.3255  0.0109
23086SOL    HW170699   1.938   4.008   1.422  0.7308 -1.1268  0.2533
23086SOL    HW270700   1.927   4.036   1.274 -0.1699  0.3894  0.5797
23087SOL     OW70701   1.086   1.257   2.086 -0.1069  0.0620  0.8706
23087SOL    HW170702   1.000   1.244   2.126  0.0828 -0.4841  1.1056
23087SOL    HW270703   1.137   1.302   2.152 -0.7475  2.0967  0.0758
23088SOL     OW70704   0.014   4.743   9.077 -0.5304 -0.3064 -0.0053
23088SOL    HW170705   0.076   4.679   9.043 -1.6756 -1.0605 -0.7478
23088SOL    HW270706  -0.063   4.692   9.102 -1.3691  0.7275 -0.3631
23089SOL     OW70707   2.024   1.535   5.556  0.1212  0.0279  0.2198
23089SOL    HW170708   1.936   1.507   5.577 -0.1529  0.1028 -0.7571
23089SOL    HW270709   2.068   1.456   5.524  0.8437 -0.3136  1.9287
23090SOL     OW70710   1.849   1.181   4.364 -0.4278  0.1545  0.2829
23090SOL    HW170711   1.826   1.089   4.378  0.8052 -0.3051 -0.5745
23090SOL    HW270712   1.894   1.207   4.444 -2.6179  0.6791  1.4278
23091SOL     OW70713   0.726   5.718  10.989  0.0015 -0.4329 -0.1625
23091SOL    HW170714   0.815   5.735  10.956  0.3467 -0.3672  0.7614
23091SOL    HW270715   0.724   5.762  11.074 -0.8593 -0.6081 -0.0860
23092SOL     OW70716   0.926   4.019   3.818  0.1153 -0.2185  0.0569
23092SOL    HW170717   1.020   4.037   3.826  0.4022 -1.6535  0.3310
23092SOL    HW270718   0.908   4.031   3.725  0.3583  0.9390  0.1443
23093SOL     OW70719   0.102   3.823   8.910  0.5646  0.1078  0.2924
23093SOL    HW170720   0.013   3.793   8.890 -0.0612  1.1794  1.3605
23093SOL    HW270721   0.148   3.816   8.826 -0.1651 -1.6080 -0.0143
23094SOL     OW70722   4.586   0.073   1.644  0.1060  0.8042  0.0573
23094SOL    HW170723   4.653   0.048   1.707  0.0269 -0.3562 -0.3102
23094SOL    HW270724   4.523   0.124   1.695  0.1024 -0.0170  0.8898
23095SOL     OW70725   7.507   2.518  11.235  0.0273  0.7531 -0.5539
23095SOL    HW170726   7.485   2.497  11.326  1.1608 -0.8241 -0.5977
23095SOL    HW270727   7.535   2.609  11.237  1.5648  0.2978  1.0118
23096SOL     OW70728   2.497   4.969   4.019  0.1947  0.4923  0.4720
23096SOL    HW170729   2.406   4.941   4.032 -0.4888  2.3237 -0.0414
23096SOL    HW270730   2.526   5.000   4.105 -0.0155  0.8494  0.4146
23097SOL     OW70731   0.477   1.006   6.040  0.3041 -0.0541 -0.0832
23097SOL    HW170732   0.400   0.982   6.092  1.6210  0.9500  2.5381
23097SOL    HW270733   0.448   1.081   5.988 -0.9179 -0.7442 -0.4489
23098SOL     OW70734   5.438   7.817   8.632 -0.0989 -0.2066 -0.2471
23098SOL    HW170735   5.450   7.903   8.671 -0.7797 -0.5403  0.7586
23098SOL    HW270736   5.347   7.817   8.601  0.2403 -0.1734 -1.2684
23099SOL     OW70737   0.036   7.266   8.671  0.7541 -0.2311  0.1964
23099SOL    HW170738  -0.033   7.201   8.679 -0.9986  1.4226 -0.7513
23099SOL    HW270739   0.084   7.262   8.754 -1.0242 -0.8241  1.2382
23100SOL     OW70740   1.831   6.336  11.598  0.2748  0.0336 -0.3807
23100SOL    HW170741   1.763   6.297  11.543  0.6204 -0.6241 -0.3634
23100SOL    HW270742   1.899   6.363  11.536  0.2202  0.2151 -0.3603
23101SOL     OW70743   0.563   4.787   8.420  0.5765  0.0674 -0.0228
23101SOL    HW170744   0.499   4.748   8.360  1.5317 -1.5569 -0.0446
23101SOL    HW270745   0.554   4.736   8.501  1.4804  0.1536  0.1445
23102SOL     OW70746   7.615   4.574   0.429  0.2854 -0.1594  0.3689
23102SOL    HW170747   7.583   4.572   0.339  0.1439 -0.7542  0.4309
23102SOL    HW270748   7.563   4.642   0.472  1.1715  0.9882 -0.2962
23103SOL     OW70749   5.868   6.807   0.272  0.2900  0.6461  0.1406
23103SOL    HW170750   5.841   6.838   0.358 -2.4426  1.7241 -1.0001
23103SOL    HW270751   5.816   6.728   0.257  0.8521  0.3768 -0.4818
23104SOL     OW70752   4.560   3.427   1.734 -0.3054 -0.3418 -0.2416
23104SOL    HW170753   4.541   3.444   1.642  0.7332  0.0030 -0.4115
23104SOL    HW270754   4.489   3.470   1.782 -0.1184  0.6653 -0.8380
23105SOL     OW70755   5.995   7.510   0.310 -0.3882  0.3846  0.1833
23105SOL    HW170756   6.025   7.442   0.250  0.8385  1.8559 -0.9400
23105SOL    HW270757   5.997   7.468   0.396  0.7302 -0.8740 -0.4222
23106SOL     OW70758   1.514   6.296   0.412 -0.4368 -0.6918 -0.2074
23106SOL    HW170759   1.434   6.317   0.460 -0.8979 -1.2961 -0.6776
23106SOL    HW270760   1.563   6.239   0.471  1.0254  1.9081  1.2451
23107SOL     OW70761   3.371   2.603   2.754 -0.5419  0.0632  0.0776
23107SOL    HW170762   3.401   2.689   2.724  1.1338 -0.4204  0.2732
23107SOL    HW270763   3.337   2.619   2.842 -1.2860  0.6914 -0.3057
23108SOL     OW70764   6.834   2.543   9.548  0.2335  0.2948  0.0558
23108SOL    HW170765   6.861   2.634   9.541 -0.3814  0.5098  0.3349
23108SOL    HW270766   6.904   2.493   9.506  0.9521  0.8307  0.5907
23109SOL     OW70767   7.655   6.701  11.853  0.1121 -0.0043 -1.0551
23109SOL    HW170768   7.637   6.613  11.819 -0.3735 -0.3464  0.0401
23109SOL    HW270769   7.710   6.686  11.929  0.3155  0.6726 -1.0670
23110SOL     OW70770   0.864   7.119   8.715  0.2465  0.1058 -0.3606
23110SOL    HW170771   0.821   7.151   8.794  0.2204  0.8759 -0.6744
23110SOL    HW270772   0.813   7.042   8.689  0.3206 -0.2122  0.4240
23111SOL     OW70773   6.831   7.871   9.454  0.6143 -0.2431  0.5866
23111SOL    HW170774   6.813   7.896   9.363 -3.0291  0.5408  1.3546
23111SOL    HW270775   6.884   7.943   9.489 -0.9061  1.2862 -0.0727
23112SOL     OW70776   7.313   6.073   5.366  0.3139 -0.0503 -0.3132
23112SOL    HW170777   7.373   6.141   5.333 -1.0033  1.7173  0.7633
23112SOL    HW270778   7.275   6.110   5.445 -0.4637 -2.0862  0.3332
23113SOL     OW70779   5.451   2.020   8.282 -0.3270 -0.5400 -0.1641
23113SOL    HW170780   5.475   2.097   8.231  1.8927 -0.6330  0.6411
23113SOL    HW270781   5.511   2.021   8.357 -1.7857 -1.7977  1.0903
23114SOL     OW70782   7.024   1.578   3.521  0.1690  0.5516  0.1360
23114SOL    HW170783   7.109   1.536   3.508  0.2472  1.1802 -1.7660
23114SOL    HW270784   7.045   1.670   3.538 -0.1079  0.6550 -0.0658
23115SOL     OW70785   1.077   0.493  10.037 -0.3349 -0.3158 -0.1962
23115SOL    HW170786   1.036   0.406  10.034 -0.4023 -0.5371  3.1730
23115SOL    HW270787   1.171   0.475  10.041 -0.3369 -0.2183  0.2754
23116SOL     OW70788   3.000   3.151   0.435  0.3969  0.5869 -0.0560
23116SOL    HW170789   2.967   3.169   0.348 -0.8993  1.6287  0.6203
23116SOL    HW270790   2.997   3.235   0.480 -2.6017 -0.5307  2.1611
23117SOL     OW70791   5.651   6.051   1.162 -0.7445 -0.2596 -0.5578
23117SOL    HW170792   5.731   6.050   1.109  1.1339 -1.3080  2.0842
23117SOL    HW270793   5.633   6.144   1.177  2.2262  0.0905  1.7950
23118SOL     OW70794   6.270   4.091   2.736 -0.5104 -0.1172 -0.5974
23118SOL    HW170795   6.207   4.043   2.791  0.6244 -0.3988  0.5073
23118SOL    HW270796   6.239   4.077   2.647 -1.8125 -0.5408 -0.1051
23119SOL     OW70797   4.361   0.557  10.474 -0.1873  0.2745 -0.2122
23119SOL    HW170798   4.425   0.584  10.408  0.0079  3.6296  1.2028
23119SOL    HW270799   4.412   0.511  10.540  0.2782  0.4083 -0.4779
23120SOL     OW70800   4.639   3.329   0.948 -0.5329 -0.4300 -0.7527
23120SOL    HW170801   4.654   3.353   0.857 -1.0878  0.2716 -0.6609
23120SOL    HW270802   4.727   3.320   0.985 -0.2991 -1.0361 -1.4299
23121SOL     OW70803   0.928   6.530   9.531  0.4791 -0.1425  0.5365
23121SOL    HW170804   0.944   6.467   9.600 -1.0228 -1.2696 -0.1046
23121SOL    HW270805   1.004   6.521   9.473  0.5771 -0.9141  0.7750
23122SOL     OW70806   2.575   7.134   3.886 -0.4417 -0.2660 -0.1547
23122SOL    HW170807   2.541   7.053   3.924  2.4985 -1.4169  0.2531
23122SOL    HW270808   2.545   7.131   3.795 -0.4543 -1.8065 -0.1352
23123SOL     OW70809   3.749   2.637  11.193  0.9117  0.3509  0.0110
23123SOL    HW170810   3.731   2.730  11.182 -0.1496  0.0514 -1.1422
23123SOL    HW270811   3.736   2.620  11.286 -0.1251  1.1292  0.0227
23124SOL     OW70812   1.181   0.144   0.155 -0.3257  0.3947  0.4013
23124SOL    HW170813   1.177   0.133   0.060  1.2982 -0.3291  0.3827
23124SOL    HW270814   1.230   0.224   0.168 -0.7968  0.6490  0.6410
23125SOL     OW70815   1.062   2.313   2.475  0.4013  0.6434  0.0546
23125SOL    HW170816   1.025   2.247   2.416  0.4211  1.5631 -1.0382
23125SOL    HW270817   1.029   2.290   2.561  0.0387 -0.5209 -0.3822
23126SOL     OW70818   0.350   5.797   0.324  0.2781 -0.1448  0.2077
23126SOL    HW170819   0.381   5.888   0.323 -0.8287  0.2428 -0.0566
23126SOL    HW270820   0.423   5.748   0.363 -0.1190  1.2221  2.9247
23127SOL     OW70821   3.766   7.581   0.568  0.5536 -0.5469 -0.0565
23127SOL    HW170822   3.773   7.501   0.517 -0.5644  0.5788 -2.1034
23127SOL    HW270823   3.678   7.614   0.549  1.0624  1.2837  0.5346
23128SOL     OW70824   6.429   3.281   5.458 -0.0468  0.2795  0.5664
23128SOL    HW170825   6.434   3.375   5.442  1.5031  0.4351  1.7169
23128SOL    HW270826   6.450   3.241   5.373  1.9319  1.0239  0.6505
23129SOL     OW70827   2.333   5.653   9.874  0.0122 -0.4456  0.2445
23129SOL    HW170828   2.268   5.664   9.944 -0.9650 -0.5791 -0.6193
23129SOL    HW270829   2.299   5.580   9.821 -0.3002  0.8957 -1.4821
23130SOL     OW70830   6.278   1.776   6.213  0.1420  0.2742 -0.0289
23130SOL    HW170831   6.316   1.850   6.261  0.0260  1.0786 -1.1367
23130SOL    HW270832   6.349   1.712   6.208  0.3136  0.3834  0.7468
23131SOL     OW70833   3.476   7.807  11.171  0.3568 -0.4362 -0.0085
23131SOL    HW170834   3.525   7.758  11.105  0.1547 -1.9660  0.9201
23131SOL    HW270835   3.543   7.839  11.231  0.3957 -0.7810  0.1387
23132SOL     OW70836   4.634   0.603   6.759  1.2179 -0.0087 -0.2295
23132SOL    HW170837   4.603   0.577   6.846  1.4974  3.3872  1.0611
23132SOL    HW270838   4.727   0.580   6.758  1.1162 -0.4408  0.2387
23133SOL     OW70839   5.652   1.204   5.177  0.1115 -0.3450 -0.0086
23133SOL    HW170840   5.710   1.263   5.226 -1.5592  0.4912  1.0625
23133SOL    HW270841   5.675   1.219   5.085  0.6644  0.9716  0.3160
23134SOL     OW70842   5.766   6.807   5.057  0.4378  0.4165 -0.3617
23134SOL    HW170843   5.750   6.717   5.029 -2.0792  0.4057  0.8625
23134SOL    HW270844   5.682   6.851   5.044  0.9093  1.9309  1.3273
23135SOL     OW70845   6.234   2.360   8.852 -0.0320 -0.5223 -0.4374
23135SOL    HW170846   6.296   2.363   8.924  0.0932 -2.1217 -0.4319
23135SOL    HW270847   6.276   2.409   8.781  1.6091 -2.1267 -0.6659
23136SOL     OW70848   3.848   3.198   8.064 -0.2057  0.2463 -0.3892
23136SOL    HW170849   3.767   3.247   8.074 -0.1149  0.8705 -2.2157
23136SOL    HW270850   3.882   3.188   8.153 -0.4763  3.1089  0.1305
23137SOL     OW70851   5.394   2.344   9.956 -0.3065 -0.2609  0.7684
23137SOL    HW170852   5.473   2.371   9.908 -0.7760 -0.2042  0.0129
23137SOL    HW270853   5.324   2.397   9.918 -0.4517  0.9790  2.6146
23138SOL     OW70854   4.594   3.131   9.431 -0.2077  0.0588 -0.3731
23138SOL    HW170855   4.570   3.115   9.522  0.0015  1.9240  0.0456
23138SOL    HW270856   4.514   3.115   9.381 -0.4653 -0.4426  0.2012
23139SOL     OW70857   6.851   7.634   3.731 -0.6100 -0.5218  0.2957
23139SOL    HW170858   6.864   7.547   3.769  1.1441 -0.4062  0.0515
23139SOL    HW270859   6.889   7.694   3.795 -1.6045  0.0640  0.3535
23140SOL     OW70860   2.394   5.905   1.708 -0.0007 -0.0715 -0.2380
23140SOL    HW170861   2.424   5.814   1.701 -0.0888 -0.0609 -0.7784
23140SOL    HW270862   2.395   5.938   1.618  0.4112  0.5879 -0.0022
23141SOL     OW70863   7.335   7.122   6.859  0.3947  0.1063 -0.6474
23141SOL    HW170864   7.292   7.182   6.920 -2.3679 -1.2518 -1.0930
23141SOL    HW270865   7.321   7.161   6.773  0.5449 -0.0927 -0.7623
23142SOL     OW70866   6.512   7.708   3.426  0.3988 -0.1261  0.1256
23142SOL    HW170867   6.537   7.708   3.334  0.0930  0.7557  0.0375
23142SOL    HW270868   6.581   7.758   3.470  0.7656 -0.8976  0.4448
23143SOL     OW70869   7.285   3.905   2.832  0.2101  0.0685 -0.3965
23143SOL    HW170870   7.247   3.849   2.900 -0.4185  0.7789 -0.1466
23143SOL    HW270871   7.334   3.972   2.880  0.1661  0.2924 -0.6623
23144SOL     OW70872   0.809   1.017   1.184 -0.2023 -0.1372 -0.3707
23144SOL    HW170873   0.731   1.059   1.148  0.3899  0.8869 -0.4939
23144SOL    HW270874   0.827   0.944   1.125 -0.6659  0.0355 -0.7275
23145SOL     OW70875   7.811   2.590   1.109  0.2804  0.4207 -0.2041
23145SOL    HW170876   7.742   2.575   1.173 -0.9421  0.1128 -1.5440
23145SOL    HW270877   7.820   2.685   1.104 -0.8652  0.5161 -0.8192
23146SOL     OW70878   2.313   0.868   3.608 -0.4127  0.0838 -0.0941
23146SOL    HW170879   2.325   0.937   3.673 -0.5550  0.5473 -0.5568
23146SOL    HW270880   2.379   0.803   3.630  1.0422  1.2584 -0.8344
23147SOL     OW70881   5.522   0.886   1.690  0.5924  0.2775  0.5014
23147SOL    HW170882   5.507   0.837   1.771 -0.1828 -0.4339 -0.0587
23147SOL    HW270883   5.607   0.855   1.659  0.7696  0.3599  0.9016
23148SOL     OW70884   3.666   1.664   2.825  0.0564 -0.2145  0.2641
23148SOL    HW170885   3.648   1.677   2.732 -0.7523  0.0832  0.4522
23148SOL    HW270886   3.608   1.592   2.851  0.4257 -0.4316  0.4861
23149SOL     OW70887   4.182   5.610   3.660 -0.4258  0.2390 -0.3993
23149SOL    HW170888   4.093   5.596   3.691  0.4033 -1.4474  1.4251
23149SOL    HW270889   4.220   5.522   3.654  1.8888  1.0012  1.3984
23150SOL     OW70890   1.377   4.821   6.915  0.1944  0.1748  0.6820
23150SOL    HW170891   1.384   4.736   6.872  1.9413  0.1381  0.9382
23150SOL    HW270892   1.326   4.875   6.855  0.7025 -0.5188 -0.3927
23151SOL     OW70893   6.536   7.127  10.059 -0.3053  0.4509 -0.0321
23151SOL    HW170894   6.510   7.148  10.149  0.8618  1.5363  0.0856
23151SOL    HW270895   6.628   7.101  10.067  0.3856  2.4053 -1.1231
23152SOL     OW70896   6.517   0.929   4.879 -0.3153 -0.8585  0.2354
23152SOL    HW170897   6.585   0.936   4.947 -1.7606 -0.8632  1.7520
23152SOL    HW270898   6.436   0.911   4.928 -1.4292 -0.7868 -1.5004
23153SOL     OW70899   2.936   2.788   7.371 -0.3473 -0.2040  0.1795
23153SOL    HW170900   2.914   2.726   7.441 -1.2459 -0.8880 -0.6752
23153SOL    HW270901   3.014   2.751   7.330 -1.2369 -1.1470 -0.7247
23154SOL     OW70902   0.529   2.782   2.319 -0.3283 -0.1791 -0.6990
23154SOL    HW170903   0.600   2.769   2.256  0.9081  1.8709  0.1827
23154SOL    HW270904   0.572   2.779   2.405 -1.6274 -0.7808 -0.0433
23155SOL     OW70905   3.773   0.255   3.196 -0.0321 -0.2935  0.4077
23155SOL    HW170906   3.757   0.160   3.194 -0.2798 -0.2477  0.2396
23155SOL    HW270907   3.729   0.289   3.118  2.0876 -0.3376 -0.8841
23156SOL     OW70908   1.827   1.797  11.027 -0.7275 -0.4403  0.1667
23156SOL    HW170909   1.851   1.728  10.966  1.2532  0.5229 -0.2151
23156SOL    HW270910   1.893   1.794  11.096  0.2422  1.8332 -0.5365
23157SOL     OW70911   5.906   0.481  11.496 -0.2679 -0.4427  0.0539
23157SOL    HW170912   6.001   0.479  11.509 -0.2257 -0.3025 -0.2290
23157SOL    HW270913   5.870   0.456  11.581  0.0024  0.4304  0.4369
23158SOL     OW70914   5.732   0.209   7.312 -0.4981 -0.4007 -0.0855
23158SOL    HW170915   5.662   0.146   7.329 -1.1988  0.0173 -1.2633
23158SOL    HW270916   5.733   0.265   7.389 -1.9216 -0.0147 -0.3204
23159SOL     OW70917   1.506   0.858   2.954 -0.3969  0.3992  0.3516
23159SOL    HW170918   1.421   0.844   2.994 -0.4359  0.6856  0.3762
23159SOL    HW270919   1.499   0.821   2.867  0.4464 -2.4269  1.3877
23160SOL     OW70920   0.024   4.482  11.809  0.2726  0.2107 -0.1695
23160SOL    HW170921   0.062   4.395  11.796 -0.4118  0.0498 -1.2179
23160SOL    HW270922  -0.031   4.496  11.732 -2.2304  0.1937  1.5079
23161SOL     OW70923   4.414   5.568   7.259  0.2319 -0.3171 -0.6620
23161SOL    HW170924   4.342   5.629   7.277 -1.4273 -1.2637 -3.3974
23161SOL    HW270925   4.408   5.503   7.330 -2.7877 -1.2726 -1.6046
23162SOL     OW70926   4.291   3.319   7.824  0.1049 -0.8005  0.1770
23162SOL    HW170927   4.247   3.329   7.908 -0.4225  0.7501 -0.2435
23162SOL    HW270928   4.362   3.258   7.841 -1.7222 -2.8374  1.0647
23163SOL     OW70929   0.902   3.021   4.241  0.6407  0.7631  0.3438
23163SOL    HW170930   0.835   3.087   4.224  0.2367  0.2699 -0.0373
23163SOL    HW270931   0.980   3.070   4.266 -0.1382  1.3247  1.7908
23164SOL     OW70932   5.269   4.938   8.851  0.2501 -0.2270  0.2173
23164SOL    HW170933   5.334   4.869   8.843  1.2356  0.2583  2.8929
23164SOL    HW270934   5.320   5.019   8.849 -0.3403  0.1985  1.5399
23165SOL     OW70935   3.270   0.503  12.304 -0.3229  0.4575  0.2784
23165SOL    HW170936   3.221   0.428  12.337  0.9049  0.1889  1.6073
23165SOL    HW270937   3.305   0.474  12.220 -1.4787  0.2653 -0.1518
23166SOL     OW70938   1.344   1.622   9.883  0.6383 -0.4239 -0.1968
23166SOL    HW170939   1.367   1.715   9.875 -2.1732  0.2805 -1.2159
23166SOL    HW270940   1.389   1.580   9.809  1.3960  0.2218 -0.1159
23167SOL     OW70941   6.596   6.163   0.607 -0.2844 -0.0019  0.8703
23167SOL    HW170942   6.555   6.089   0.651 -1.5702  0.9567  1.3604
23167SOL    HW270943   6.549   6.240   0.641  0.3921  0.9641 -0.3057
23168SOL     OW70944   0.796   0.643   1.901  0.1768 -0.5645 -0.6312
23168SOL    HW170945   0.814   0.556   1.937 -1.1725 -0.9133 -0.7425
23168SOL    HW270946   0.770   0.627   1.810  2.2397  0.1948 -1.4056
23169SOL     OW70947   5.071   4.395   6.976 -0.1154  0.1006  0.0521
23169SOL    HW170948   5.076   4.311   6.930 -1.2713  0.3345 -0.5394
23169SOL    HW270949   5.025   4.375   7.057  0.6684 -0.0438  0.4747
23170SOL     OW70950   6.229   5.471   0.610 -0.0402  0.6393 -0.5334
23170SOL    HW170951   6.308   5.425   0.581 -0.7750 -0.4379 -0.8725
23170SOL    HW270952   6.168   5.402   0.634 -0.5763  1.4689  0.6054
23171SOL     OW70953   6.733   6.426   6.477 -0.0409  0.2911  0.6355
23171SOL    HW170954   6.796   6.372   6.524 -0.3113 -1.7687 -1.2101
23171SOL    HW270955   6.755   6.516   6.502  4.0409 -0.2360 -0.3185
23172SOL     OW70956   6.712   2.635   9.031 -0.0544 -0.1751  0.1365
23172SOL    HW170957   6.652   2.675   9.094  0.8799 -0.1532  1.0353
23172SOL    HW270958   6.682   2.667   8.946 -2.5837 -1.7696  0.3152
23173SOL     OW70959   5.864   5.630   1.000  0.0597  0.6488 -0.6309
23173SOL    HW170960   5.950   5.653   0.966  0.9198 -1.5147 -0.1349
23173SOL    HW270961   5.835   5.707   1.049  2.5178  0.8225  0.6624
23174SOL     OW70962   1.034   6.457   9.788 -0.5755  0.0037 -0.0099
23174SOL    HW170963   0.985   6.485   9.866  0.2494  1.4446  0.0320
23174SOL    HW270964   1.068   6.539   9.751  1.2875 -0.8934 -0.3817
23175SOL     OW70965   0.578   2.902  11.366 -0.0870 -0.0638 -0.0840
23175SOL    HW170966   0.515   2.916  11.436 -0.3508 -1.3244 -0.0402
23175SOL    HW270967   0.644   2.844  11.403  1.0427  1.1080 -0.1818
23176SOL     OW70968   4.844   7.847   8.495 -0.1360 -0.0789  0.0478
23176SOL    HW170969   4.875   7.938   8.489  0.3287 -0.2617 -0.5079
23176SOL    HW270970   4.749   7.854   8.489 -0.1989  0.4751  1.4340
23177SOL     OW70971   2.200   7.766   3.598  0.1575 -0.7117  0.0425
23177SOL    HW170972   2.158   7.804   3.521 -0.3190  0.2995  0.7708
23177SOL    HW270973   2.155   7.682   3.611 -0.5223 -0.3793 -0.1321
23178SOL     OW70974   1.800   6.261   9.472 -0.0796  0.5357  0.2115
23178SOL    HW170975   1.768   6.172   9.488  1.4197  0.0699  0.7631
23178SOL    HW270976   1.838   6.258   9.385 -0.5620  0.8036 -0.0104
23179SOL     OW70977   5.272   6.918   0.098 -0.3080 -0.2523  0.1209
23179SOL    HW170978   5.330   6.842   0.100 -0.2659 -0.2160  2.6007
23179SOL    HW270979   5.185   6.883   0.119 -0.3736  0.3155  0.8102
23180SOL     OW70980   2.828   4.944   7.518 -0.2450 -1.0517  0.0173
23180SOL    HW170981   2.756   4.887   7.489 -0.1043 -1.5655  0.6659
23180SOL    HW270982   2.784   5.020   7.556 -0.4472 -0.0166 -2.1299
23181SOL     OW70983   6.297   0.774   0.795 -0.0246  0.7476  0.3075
23181SOL    HW170984   6.364   0.746   0.732 -1.7101  0.8418 -1.6462
23181SOL    HW270985   6.343   0.833   0.854  2.3984 -1.8383  1.2468
23182SOL     OW70986   3.191   0.786   8.195 -0.4336  0.8128  0.1630
23182SOL    HW170987   3.211   0.878   8.213  2.0596  0.8760 -2.2192
23182SOL    HW270988   3.150   0.786   8.109  0.1137 -0.3297 -0.1180
23183SOL     OW70989   1.080   7.588   1.106  0.2739 -0.2301  0.1763
23183SOL    HW170990   1.110   7.672   1.139  1.4122 -0.1086 -1.0757
23183SOL    HW270991   1.160   7.538   1.091 -0.4289 -2.3065  2.7152
23184SOL     OW70992   2.336   4.844   0.735 -0.5056 -0.4591 -0.1638
23184SOL    HW170993   2.273   4.904   0.695  0.1235  0.1370 -0.2788
23184SOL    HW270994   2.381   4.896   0.801  0.4786 -0.6117 -0.6886
23185SOL     OW70995   3.707   6.495   9.991  0.0767 -0.2519  0.3229
23185SOL    HW170996   3.685   6.587  10.003  0.5561 -0.0797 -0.1240
23185SOL    HW270997   3.708   6.459  10.080  2.7381  0.8281  0.8252
23186SOL     OW70998   3.537   2.084   5.234  0.2613 -0.4254  0.4726
23186SOL    HW170999   3.462   2.058   5.287 -0.4643  0.8391  0.1232
23186SOL    HW271000   3.571   2.003   5.197  0.6964 -1.3350  2.7248
23187SOL     OW71001   1.296   7.735   3.496 -0.0932 -0.0202  0.0928
23187SOL    HW171002   1.378   7.783   3.481  0.7470 -1.2664  0.4939
23187SOL    HW271003   1.253   7.734   3.411 -0.3431  1.7478  0.1470
23188SOL     OW71004   7.158   5.338   3.628 -0.5372 -0.1488 -0.4050
23188SOL    HW171005   7.180   5.431   3.619 -1.7843  0.1333 -0.6863
23188SOL    HW271006   7.068   5.332   3.598 -0.2975 -1.5562 -0.9224
23189SOL     OW71007   0.610   0.709  10.255  0.2180  0.3300 -0.0369
23189SOL    HW171008   0.544   0.689  10.322  0.6895 -0.2198  0.2703
23189SOL    HW271009   0.628   0.802  10.267 -1.4915  0.8376 -1.0208
23190SOL     OW71010   4.163   1.043  10.673  0.1191  0.5050  0.0288
23190SOL    HW171011   4.117   1.069  10.753  1.5422  1.4685  0.5679
23190SOL    HW271012   4.237   0.990  10.704 -0.0373 -0.2012 -0.7517
23191SOL     OW71013   6.531   6.842   5.443 -0.3416 -0.1062 -0.3411
23191SOL    HW171014   6.616   6.852   5.402  0.1951 -3.3571 -0.3211
23191SOL    HW271015   6.472   6.818   5.371 -1.0513  1.1734 -0.2106
23192SOL     OW71016   2.187   7.852   5.630  0.1745 -0.1008  0.1950
23192SOL    HW171017   2.214   7.943   5.617 -0.4917  0.7133  3.4915
23192SOL    HW271018   2.235   7.824   5.708 -0.6895 -2.1247  0.0537
23193SOL     OW71019   6.048   6.965  11.888 -0.3379 -0.5068  0.1907
23193SOL    HW171020   6.079   6.963  11.978 -3.1563 -0.5317  1.2464
23193SOL    HW271021   6.007   6.879  11.875 -1.5645  0.1590 -0.4750
23194SOL     OW71022   1.591   2.071   5.765 -0.7590  0.0822 -0.1779
23194SOL    HW171023   1.550   2.140   5.818  1.8023  2.2132 -0.7353
23194SOL    HW271024   1.634   2.119   5.693  1.1069 -2.0982 -0.6348
23195SOL     OW71025   6.067   7.251   0.067  0.5173 -0.1999  0.3034
23195SOL    HW171026   6.157   7.236   0.096  0.5202 -2.7119 -0.7952
23195SOL    HW271027   6.017   7.178   0.105 -0.4357 -0.6160 -1.6190
23196SOL     OW71028   5.717   2.794   3.809 -0.4744  0.6651  0.0693
23196SOL    HW171029   5.661   2.755   3.742 -1.9134 -0.0030  1.5948
23196SOL    HW271030   5.694   2.887   3.807  0.0999  0.7986 -0.9053
23197SOL     OW71031   2.701   4.290   1.788  0.0938 -0.2868 -0.0735
23197SOL    HW171032   2.699   4.261   1.879 -0.1903 -0.5381 -0.1580
23197SOL    HW271033   2.693   4.209   1.737 -1.6641 -0.0051 -0.3057
23198SOL     OW71034   0.606   0.380   0.283 -0.1681  0.0240  0.0624
23198SOL    HW171035   0.533   0.367   0.344 -0.7622  1.5182 -0.2931
23198SOL    HW271036   0.638   0.468   0.302  3.0035 -1.3314  1.7055
23199SOL     OW71037   0.757   0.518   8.055 -0.0493  0.4032 -0.5820
23199SOL    HW171038   0.819   0.452   8.085  1.3691  1.7257 -0.4578
23199SOL    HW271039   0.724   0.558   8.135  0.7028  1.2312 -0.6646
23200SOL     OW71040   0.394   6.808  10.667  0.3332  0.2302 -0.3658
23200SOL    HW171041   0.459   6.820  10.736 -0.7158  0.2632  0.6422
23200SOL    HW271042   0.333   6.880  10.678 -0.7433 -0.6673 -0.2825
23201SOL     OW71043   3.452   1.492  10.991 -0.4802  0.0381 -0.2349
23201SOL    HW171044   3.543   1.463  10.983 -0.7809 -1.0714  0.2489
23201SOL    HW271045   3.458   1.578  11.033  0.3457 -0.0569 -0.1435
23202SOL     OW71046   1.092   4.664   6.859 -0.3783 -0.3523  0.1335
23202SOL    HW171047   1.043   4.604   6.915 -0.9017 -1.3893 -1.3758
23202SOL    HW271048   1.183   4.635   6.867 -0.2757  0.1804  1.2148
23203SOL     OW71049   7.603   0.178   7.422  0.0108  0.2876 -0.3193
23203SOL    HW171050   7.527   0.155   7.369 -0.5256 -0.6522  0.8084
23203SOL    HW271051   7.568   0.188   7.510  1.2071 -0.3185  0.2460
23204SOL     OW71052   2.387   3.153   5.578  0.2695  0.4285  0.0679
23204SOL    HW171053   2.439   3.234   5.576  1.2891 -0.2189 -0.6679
23204SOL    HW271054   2.305   3.176   5.534  1.4625  0.4956 -2.2729
23205SOL     OW71055   1.279   0.975   3.102  0.2149 -0.1835 -0.6185
23205SOL    HW171056   1.304   1.037   3.034  1.5737  0.2184  0.1896
23205SOL    HW271057   1.263   1.029   3.179  0.1334 -0.7338 -0.2397
23206SOL     OW71058   4.760   4.989  11.844 -0.4276 -0.3815 -0.1771
23206SOL    HW171059   4.688   4.959  11.900  0.8255 -1.3226  1.0115
23206SOL    HW271060   4.717   5.026  11.767 -2.2248  0.4707  1.1591
23207SOL     OW71061   0.096   7.370   4.902 -0.1716 -0.6588  0.0634
23207SOL    HW171062   0.175   7.424   4.907  0.1921 -0.8303 -2.5872
23207SOL    HW271063   0.116   7.294   4.958  0.6610  0.2898  1.1114
23208SOL     OW71064   5.215   3.688   9.589 -0.5784  0.2088 -0.4327
23208SOL    HW171065   5.135   3.734   9.615 -0.8360  0.6108 -1.8098
23208SOL    HW271066   5.186   3.598   9.573 -0.4736  0.0286  0.3590
23209SOL     OW71067   4.499   2.501   3.548  0.8775 -0.2533  0.2331
23209SOL    HW171068   4.493   2.513   3.643 -0.3788  0.6647  0.0520
23209SOL    HW271069   4.411   2.476   3.521  1.6817 -2.6950 -0.4446
23210SOL     OW71070   4.698   3.092   0.270  0.1030  0.0038 -0.2746
23210SOL    HW171071   4.772   3.127   0.221 -0.5497 -0.4666 -1.6421
23210SOL    HW271072   4.718   2.999   0.281  0.9959  0.3869  1.8036
23211SOL     OW71073   4.930   1.134   4.283  0.9548  0.4831 -0.7412
23211SOL    HW171074   4.914   1.057   4.337 -0.3467  0.6912 -0.7851
23211SOL    HW271075   4.891   1.112   4.198  2.5773  0.3307 -1.4790
23212SOL     OW71076   2.340   6.060  10.823 -0.4996 -0.2889  0.2951
23212SOL    HW171077   2.423   6.048  10.868  0.8184 -0.9549 -2.1090
23212SOL    HW271078   2.297   6.131  10.870  1.1215 -0.3722  2.0249
23213SOL     OW71079   2.847   6.178   4.191 -0.6708  0.1979 -0.7900
23213SOL    HW171080   2.884   6.092   4.171 -2.6974 -0.9210  0.0170
23213SOL    HW271081   2.923   6.232   4.215  0.9203 -0.6608 -3.4044
23214SOL     OW71082   5.675   1.718   7.068 -0.3979 -0.0483 -0.1723
23214SOL    HW171083   5.634   1.657   7.007  1.4598 -1.7078  0.1182
23214SOL    HW271084   5.661   1.678   7.154 -0.1201  0.5311  0.1483
23215SOL     OW71085   7.064   6.030   6.763 -0.2668  0.1371  0.3382
23215SOL    HW171086   7.143   6.066   6.804 -0.6167  2.2840 -0.7276
23215SOL    HW271087   7.074   6.049   6.669 -0.9860 -1.7030 -0.1693
23216SOL     OW71088   2.364   1.008   5.842 -0.0936 -0.1854  0.4831
23216SOL    HW171089   2.433   1.025   5.906 -0.9020 -1.8539  1.8641
23216SOL    HW271090   2.331   0.921   5.864 -1.2078 -0.3152 -1.4848
23217SOL     OW71091   0.825   2.584   5.960 -0.9223 -0.1286 -0.4175
23217SOL    HW171092   0.915   2.591   5.992 -0.5523  0.9669 -1.6275
23217SOL    HW271093   0.801   2.492   5.974  1.4962 -1.2756 -2.9667
23218SOL     OW71094   6.446   7.721   9.097 -0.1502  0.0625  0.4662
23218SOL    HW171095   6.476   7.683   9.179  2.1088  0.8478  0.0832
23218SOL    HW271096   6.510   7.691   9.032 -1.0491  0.6481 -0.7352
23219SOL     OW71097   4.959   4.114   5.456 -0.7770 -0.5614  0.3052
23219SOL    HW171098   4.913   4.152   5.381  0.4220  0.8812  0.2478
23219SOL    HW271099   5.014   4.046   5.419  0.5207  0.7699 -0.3240
23220SOL     OW71100   0.243   4.625   1.252  0.1525 -0.3891  0.7777
23220SOL    HW171101   0.322   4.678   1.261  0.3760 -0.6434  0.3461
23220SOL    HW271102   0.255   4.554   1.316 -0.1020  0.0145  1.2835
23221SOL     OW71103   0.892   7.685   6.281  0.2050  0.0884  0.0861
23221SOL    HW171104   0.875   7.591   6.274  0.4882 -0.0324  0.9476
23221SOL    HW271105   0.963   7.702   6.220 -1.5797  0.2398 -2.0951
23222SOL     OW71106   6.070   3.087   0.508 -0.1244 -0.4118 -0.0492
23222SOL    HW171107   6.153   3.066   0.551  0.8959  0.9259 -1.2559
23222SOL    HW271108   6.004   3.046   0.563  1.3368 -1.6684  0.8593
23223SOL     OW71109   0.816   4.011  10.183  0.0540 -0.3563  0.0493
23223SOL    HW171110   0.832   4.069  10.109 -2.9588  3.4037  1.9987
23223SOL    HW271111   0.739   3.960  10.157 -0.0818 -0.1423  0.0300
23224SOL     OW71112   7.780   0.594   0.360 -0.2914 -0.0040 -0.3548
23224SOL    HW171113   7.725   0.516   0.371  0.3897 -0.7390 -1.8661
23224SOL    HW271114   7.777   0.611   0.266  4.8205 -2.2197 -1.2549
23225SOL     OW71115   4.452   5.493   1.188  0.1910 -0.0029 -0.5071
23225SOL    HW171116   4.522   5.490   1.253  1.1196  1.5043 -1.3521
23225SOL    HW271117   4.490   5.450   1.110 -0.3755 -0.5069 -0.5067
23226SOL     OW71118   2.376   1.959   1.417 -0.2700 -0.1194 -0.0948
23226SOL    HW171119   2.401   1.927   1.503  2.1114  0.0487 -0.6674
23226SOL    HW271120   2.363   2.053   1.430  1.5088  0.1614 -0.1683
23227SOL     OW71121   0.020   4.120   6.232 -0.3763  0.0675 -0.2238
23227SOL    HW171122  -0.022   4.113   6.318 -0.3131  1.8275 -0.0058
23227SOL    HW271123   0.101   4.071   6.241  0.3725  1.4836  1.2620
23228SOL     OW71124   7.757   4.456   1.196 -0.3475 -0.0111  0.0314
23228SOL    HW171125   7.740   4.434   1.104  0.4771  1.9037 -0.6275
23228SOL    HW271126   7.842   4.499   1.195  0.8257 -2.0614  2.0745
23229SOL     OW71127   6.948   6.244   8.972 -0.0879  0.0837 -0.3028
23229SOL    HW171128   6.948   6.150   8.986  0.3206  0.1056 -0.1526
23229SOL    HW271129   6.871   6.260   8.917  0.6542 -0.5186 -1.5528
23230SOL     OW71130   6.505   2.201   2.871 -0.2482  0.0495  0.5476
23230SOL    HW171131   6.491   2.177   2.962  1.1149  0.4483  0.8869
23230SOL    HW271132   6.494   2.296   2.869 -2.9247 -0.1960 -0.2596
23231SOL     OW71133   2.458   4.638  12.291 -0.0016  0.3653 -0.0286
23231SOL    HW171134   2.435   4.725  12.258 -1.7571  0.0109  0.1750
23231SOL    HW271135   2.549   4.626  12.264  0.9064  2.9967  1.4822
23232SOL     OW71136   5.047   7.003   8.404 -0.1576 -0.5548  0.2665
23232SOL    HW171137   4.975   7.066   8.391 -0.5861 -0.4117  2.7206
23232SOL    HW271138   5.080   6.986   8.316 -2.5396  0.1521 -0.8652
23233SOL     OW71139   4.808   1.346   2.072  0.0427  0.2233  0.2861
23233SOL    HW171140   4.865   1.305   2.007  0.2850 -0.5662  0.9877
23233SOL    HW271141   4.867   1.400   2.124  0.0732 -0.2287  0.7198
23234SOL     OW71142   4.201   7.864   4.648  0.3881  0.5122 -0.0245
23234SOL    HW171143   4.137   7.904   4.590  1.2816  1.9773 -0.0459
23234SOL    HW271144   4.199   7.771   4.626  0.1252  0.9216 -1.8523
23235SOL     OW71145   4.033   0.260   0.766  0.2279 -0.6974 -0.0074
23235SOL    HW171146   4.043   0.236   0.857  0.1678  1.7989  0.7483
23235SOL    HW271147   3.939   0.273   0.754  0.2663 -0.6896 -0.3206
23236SOL     OW71148   5.769   6.692  11.341  0.0584  0.2640 -0.1315
23236SOL    HW171149   5.832   6.728  11.403  0.4651 -1.7653  0.7052
23236SOL    HW271150   5.687   6.685  11.391  0.0325 -0.1392 -0.2324
23237SOL     OW71151   4.448   6.370   7.810  0.2526 -0.2437  0.2104
23237SOL    HW171152   4.387   6.371   7.884  0.3072 -0.8804  0.2722
23237SOL    HW271153   4.405   6.423   7.743 -0.6884 -1.2041  0.0165
23238SOL     OW71154   2.631   3.897   5.099 -0.1333  0.5450 -0.2950
23238SOL    HW171155   2.572   3.960   5.059 -1.6148 -0.0452  0.8757
23238SOL    HW271156   2.607   3.897   5.192  1.7384  0.3010  0.2349
23239SOL     OW71157   4.751   6.199  11.929 -0.1858  0.9779 -0.8135
23239SOL    HW171158   4.756   6.199  11.833 -0.0387  1.3678 -0.8073
23239SOL    HW271159   4.766   6.290  11.954 -1.2077  1.0643 -0.4726
23240SOL     OW71160   4.548   6.569  10.454 -0.5317  0.0713  0.0924
23240SOL    HW171161   4.567   6.623  10.377  1.7926  0.9501  1.1741
23240SOL    HW271162   4.509   6.490  10.419  3.1635 -0.9010 -2.4234
23241SOL     OW71163   7.413   2.062   4.332  0.1978  0.8226  0.1725
23241SOL    HW171164   7.455   2.144   4.305  1.2590  0.8405  1.7843
23241SOL    HW271165   7.328   2.088   4.366 -0.6037  0.9374 -1.8049
23242SOL     OW71166   2.377   6.737   6.226  0.3999  0.2179 -0.1135
23242SOL    HW171167   2.337   6.809   6.275  0.5094 -0.3659  0.8476
23242SOL    HW271168   2.441   6.780   6.169  0.4088  0.8948  0.3922
23243SOL     OW71169   6.941   4.681  11.392  0.0705 -0.1681 -0.7228
23243SOL    HW171170   7.034   4.702  11.385  0.2469 -0.5162  0.3974
23243SOL    HW271171   6.927   4.664  11.485 -1.4149  1.2380 -0.6367
23244SOL     OW71172   0.937   2.677  10.626 -0.1486 -0.3318 -0.0773
23244SOL    HW171173   1.002   2.718  10.683 -0.1434  0.3283 -0.5545
23244SOL    HW271174   0.863   2.658  10.685  0.3326 -0.7717  0.3963
23245SOL     OW71175   3.832   5.466  12.314  1.1093 -0.1163  0.1702
23245SOL    HW171176   3.825   5.479  12.219 -0.2934  1.5780  0.4626
23245SOL    HW271177   3.923   5.441  12.328  1.3725 -0.2998 -1.5976
23246SOL     OW71178   2.938   0.763   3.674  0.1308  0.1324  0.6273
23246SOL    HW171179   2.873   0.762   3.744  0.2808  0.0109  0.7693
23246SOL    HW271180   3.022   0.750   3.720  0.2495  0.2450  0.4445
23247SOL     OW71181   3.463   5.596   0.390  0.4658 -0.5304 -0.2726
23247SOL    HW171182   3.468   5.571   0.483  1.4988 -0.5867 -0.3287
23247SOL    HW271183   3.372   5.621   0.377  0.0775 -1.4362  0.5220
23248SOL     OW71184   7.407   2.781   8.023 -0.0393  0.0228 -0.0658
23248SOL    HW171185   7.499   2.777   7.995 -0.9984  0.9018 -3.9718
23248SOL    HW271186   7.391   2.696   8.065  1.9236 -1.1892 -1.5948
23249SOL     OW71187   7.138   4.069  11.685 -0.0510  0.8845 -0.2926
23249SOL    HW171188   7.087   4.067  11.766  0.5761  0.9282  0.1146
23249SOL    HW271189   7.135   4.160  11.656  2.3681  1.6138  1.4354
23250SOL     OW71190   1.319   4.685  12.376 -0.2040  0.3865 -0.3640
23250SOL    HW171191   1.333   4.778  12.394  1.3353  0.0564  0.2907
23250SOL    HW271192   1.295   4.647  12.461  1.1101 -0.1298 -0.1971
23251SOL     OW71193   4.835   2.003   4.751 -0.0073  0.0417  0.0576
23251SOL    HW171194   4.808   1.920   4.712  2.0349 -0.8221  0.3158
23251SOL    HW271195   4.827   1.989   4.845  1.4184 -0.3213  0.1510
23252SOL     OW71196   7.351   2.556   3.824 -0.0832 -0.2331  0.4573
23252SOL    HW171197   7.357   2.470   3.865  1.6539 -0.2732  0.1682
23252SOL    HW271198   7.433   2.599   3.847 -1.1445  1.5897  1.0894
23253SOL     OW71199   2.643   0.216   6.866 -0.7242  0.6490  0.4345
23253SOL    HW171200   2.642   0.150   6.936  0.0357 -0.8170 -0.8989
23253SOL    HW271201   2.735   0.231   6.847 -0.8879 -0.9793 -2.0513
23254SOL     OW71202   1.083   2.659  10.128  0.6852  0.8136  0.0707
23254SOL    HW171203   1.078   2.672  10.222 -0.5682 -1.4980  0.3910
23254SOL    HW271204   1.080   2.564  10.116  0.0210  1.0690 -2.3227
23255SOL     OW71205   6.029   2.318   0.325  0.8642 -0.0898 -0.6044
23255SOL    HW171206   5.967   2.286   0.391  1.6930  0.1896  0.3404
23255SOL    HW271207   6.075   2.390   0.368  1.5348  0.0024 -1.4402
23256SOL     OW71208   2.064   0.793  11.320 -0.1512 -0.0315 -0.8649
23256SOL    HW171209   2.058   0.884  11.348  0.4206  0.5450 -2.4944
23256SOL    HW271210   2.002   0.746  11.376 -0.2019  1.2917  0.2310
23257SOL     OW71211   0.477   7.587   4.940 -0.1889  0.1475  0.0044
23257SOL    HW171212   0.550   7.548   4.988  0.0155  1.5158  0.8659
23257SOL    HW271213   0.432   7.641   5.004 -1.5769 -0.1228 -0.6857
23258SOL     OW71214   6.614   0.441   3.801 -0.0686 -0.2979 -0.1055
23258SOL    HW171215   6.632   0.347   3.800  1.3528 -0.1009  1.7600
23258SOL    HW271216   6.633   0.468   3.891 -0.1088  1.8422 -0.6895
23259SOL     OW71217   7.033   5.194   4.778  0.0069 -0.2792  0.1500
23259SOL    HW171218   7.045   5.122   4.839 -1.1555  1.1189  2.1461
23259SOL    HW271219   7.117   5.201   4.733  0.4107 -2.3109  0.4799
23260SOL     OW71220   3.680   6.351   9.774  0.1044 -0.0930  0.2760
23260SOL    HW171221   3.697   6.395   9.858 -1.5139  1.0090  0.0915
23260SOL    HW271222   3.664   6.423   9.713 -0.2490 -0.9067 -0.6136
23261SOL     OW71223   2.592   1.589   5.770 -0.3865  0.5060 -0.1917
23261SOL    HW171224   2.596   1.615   5.678  2.4439  2.2642  0.3247
23261SOL    HW271225   2.674   1.620   5.808 -0.6744 -1.6995  2.5836
23262SOL     OW71226   0.009   4.718   8.268  0.1157 -0.0884  0.3231
23262SOL    HW171227  -0.070   4.770   8.260  0.2497 -0.1506 -1.8902
23262SOL    HW271228  -0.000   4.648   8.203  2.2182  0.2486 -0.4123
23263SOL     OW71229   6.978   6.446   5.315 -0.6423 -0.1316 -0.2322
23263SOL    HW171230   6.904   6.487   5.269 -0.4766 -1.2496 -1.5585
23263SOL    HW271231   7.016   6.387   5.251  0.7485 -0.3910  0.7927
23264SOL     OW71232   0.305   1.336   7.172 -0.2325 -0.7701  0.4447
23264SOL    HW171233   0.347   1.410   7.129  2.6970 -1.5639  1.6743
23264SOL    HW271234   0.274   1.371   7.256  2.3290 -1.0588  1.6197
23265SOL     OW71235   5.916   6.560   3.114  0.6366  0.1509 -0.5505
23265SOL    HW171236   6.010   6.548   3.120  0.6447 -0.0875 -1.0559
23265SOL    HW271237   5.882   6.473   3.096  0.5034  0.5074 -2.2409
23266SOL     OW71238   1.046   6.843  11.878 -0.2240  0.6686  0.1025
23266SOL    HW171239   1.124   6.804  11.917  0.3291  1.7669  0.1606
23266SOL    HW271240   1.016   6.779  11.814  1.5078  0.7472 -0.8674
23267SOL     OW71241   3.025   4.997  11.348 -0.1978  0.1535 -0.1849
23267SOL    HW171242   3.121   5.004  11.351 -0.1380 -0.5538 -0.0892
23267SOL    HW271243   3.004   4.997  11.255  0.2470 -3.2819 -0.4217
23268SOL     OW71244   6.425   5.605   6.399  0.1518  0.5135  0.5265
23268SOL    HW171245   6.470   5.686   6.423  0.1751  0.2399  1.4240
23268SOL    HW271246   6.376   5.628   6.320  0.6581  1.2277  0.4038
23269SOL     OW71247   1.603   5.166  11.096 -0.0141  0.0322 -0.0524
23269SOL    HW171248   1.685   5.138  11.054 -0.4341 -0.5640 -0.5002
23269SOL    HW271249   1.629   5.237  11.154  0.5397  1.1934 -1.6348
23270SOL     OW71250   1.130   4.349   5.101 -0.5874  0.7476 -0.0425
23270SOL    HW171251   1.137   4.281   5.168 -1.0172  0.6147 -0.1301
23270SOL    HW271252   1.094   4.304   5.024 -1.2760  1.1599  0.0322
23271SOL     OW71253   3.190   3.866   7.275 -0.4725  0.9055 -0.0099
23271SOL    HW171254   3.192   3.934   7.209 -1.4363  0.6653 -0.3038
23271SOL    HW271255   3.143   3.793   7.234  0.2345  0.1858  0.4131
23272SOL     OW71256   3.433   4.289   9.501 -0.2051 -0.0955 -0.4652
23272SOL    HW171257   3.498   4.357   9.515  0.6878 -0.9890 -0.1618
23272SOL    HW271258   3.406   4.300   9.410  1.9219 -0.9953 -1.2661
23273SOL     OW71259   6.411   4.058   3.823 -0.4292 -0.2069  0.4851
23273SOL    HW171260   6.450   4.107   3.896  1.3266  0.4653 -0.8418
23273SOL    HW271261   6.317   4.059   3.842 -0.1825  1.3342  1.9100
23274SOL     OW71262   1.474   3.441  10.187  0.3858 -0.8730  0.1724
23274SOL    HW171263   1.481   3.500  10.262 -1.2362 -0.4438  0.0361
23274SOL    HW271264   1.563   3.432  10.155  0.8064  0.8102  0.7428
23275SOL     OW71265   4.563   0.253   4.793 -0.3892  0.1542  0.3164
23275SOL    HW171266   4.618   0.329   4.813 -0.1828 -0.6867  3.5233
23275SOL    HW271267   4.570   0.242   4.699  2.1652  2.1676  0.1705
23276SOL     OW71268   6.702   4.157   2.631  0.2592  0.3106  0.4753
23276SOL    HW171269   6.772   4.218   2.651  1.0380  0.0055 -1.1173
23276SOL    HW271270   6.622   4.205   2.650  0.8370  1.8996 -0.8576
23277SOL     OW71271   1.534   3.551   7.448 -0.1707 -0.1051 -0.0645
23277SOL    HW171272   1.502   3.469   7.409 -0.4910 -0.1843  0.3610
23277SOL    HW271273   1.486   3.559   7.530  1.2491 -0.4922  0.8413
23278SOL     OW71274   7.146   4.304   0.952  0.4593  0.0276 -0.1657
23278SOL    HW171275   7.214   4.270   1.010  1.3018  2.6612  0.5516
23278SOL    HW271276   7.073   4.325   1.009  1.2521  2.5326  0.0530
23279SOL     OW71277   0.867   1.185   5.402 -0.1698 -0.6469  0.4031
23279SOL    HW171278   0.960   1.211   5.399  0.2958 -2.1162  1.1351
23279SOL    HW271279   0.858   1.139   5.485 -1.5321 -0.6423  0.2702
23280SOL     OW71280   6.442   4.609   0.897  0.1452 -0.4781 -0.4349
23280SOL    HW171281   6.384   4.562   0.957 -0.5633  1.5868  0.6078
23280SOL    HW271282   6.500   4.542   0.862 -0.8602 -2.1140  0.8926
23281SOL     OW71283   2.605   1.971   2.516 -0.0052  0.0287  0.7416
23281SOL    HW171284   2.671   2.017   2.569  0.6953 -1.2675  1.0502
23281SOL    HW271285   2.620   1.878   2.535 -0.4508 -0.4200 -0.9194
23282SOL     OW71286   3.783   0.935   5.122  0.3807 -0.6073 -1.1122
23282SOL    HW171287   3.790   0.999   5.052 -1.1153  3.2677  1.9259
23282SOL    HW271288   3.838   0.969   5.192 -2.0369 -1.4618  1.3794
23283SOL     OW71289   6.861   5.637   2.917  0.2207 -0.1888  0.0706
23283SOL    HW171290   6.827   5.602   3.000  1.2263  1.3241  1.1644
23283SOL    HW271291   6.942   5.588   2.901  0.6945  0.3879  0.6667
23284SOL     OW71292   4.225   0.373   8.220 -0.0736  0.3682 -0.4448
23284SOL    HW171293   4.246   0.281   8.233  1.2048  0.7502  0.3350
23284SOL    HW271294   4.212   0.408   8.308 -1.3132  0.7802 -0.7717
23285SOL     OW71295   7.890   7.905   0.499  0.2931 -0.2315  0.0082
23285SOL    HW171296   7.962   7.866   0.450  1.9427  1.1745  1.2065
23285SOL    HW271297   7.932   7.953   0.570 -1.7135  2.0259 -0.1923
23286SOL     OW71298   0.702   6.436   4.103 -0.0682  0.8639 -0.3623
23286SOL    HW171299   0.699   6.377   4.179 -0.2481 -1.6276 -2.1892
23286SOL    HW271300   0.615   6.476   4.102 -0.0774  0.9186  0.7008
23287SOL     OW71301   1.729   4.064   6.436 -0.2016  0.4652 -0.0407
23287SOL    HW171302   1.729   3.983   6.385 -1.8916  0.9436 -0.8617
23287SOL    HW271303   1.818   4.070   6.472 -0.3539 -2.3250  0.9984
23288SOL     OW71304   0.431   7.597   0.112 -0.2985 -0.1561  0.2633
23288SOL    HW171305   0.442   7.616   0.206 -0.8829 -0.0242  0.3085
23288SOL    HW271306   0.339   7.573   0.103  0.3822 -3.3024  0.2622
23289SOL     OW71307   1.000   1.612  11.045 -0.4830  0.8124  0.3773
23289SOL    HW171308   0.908   1.591  11.059  0.1358 -2.5529  0.2215
23289SOL    HW271309   1.005   1.637  10.953 -1.1084 -0.0677  0.0889
23290SOL     OW71310   4.975   6.589  10.296  0.0773  0.1018  0.0267
23290SOL    HW171311   4.969   6.626  10.384  1.0395 -1.2562  0.7021
23290SOL    HW271312   5.036   6.515  10.305 -2.4369 -2.2877 -1.0220
23291SOL     OW71313   2.886   7.819   1.659 -0.0111 -0.0621 -0.1391
23291SOL    HW171314   2.815   7.864   1.613  0.2201  0.0891 -0.3460
23291SOL    HW271315   2.910   7.879   1.730 -0.1204 -0.1331 -0.0422
23292SOL     OW71316   7.498   4.424   6.860 -0.8975 -0.0076  0.6088
23292SOL    HW171317   7.592   4.410   6.875 -1.0867 -0.1362  1.8023
23292SOL    HW271318   7.494   4.475   6.779 -0.0029 -3.3064 -1.7302
23293SOL     OW71319   5.867   3.549   3.852 -0.1227  0.1759  0.0200
23293SOL    HW171320   5.839   3.569   3.762  1.3601  0.4643 -0.4113
23293SOL    HW271321   5.848   3.456   3.863  0.5989 -0.1013 -0.9610
23294SOL     OW71322   7.316   1.651   6.014 -0.2326  0.0686 -0.0268
23294SOL    HW171323   7.273   1.588   5.957  0.8702 -0.4168 -0.3603
23294SOL    HW271324   7.325   1.606   6.098  1.1940 -0.5189 -0.4672
23295SOL     OW71325   6.574   4.842   1.979  0.0152 -0.3593 -0.0722
23295SOL    HW171326   6.510   4.792   1.927 -1.2326 -1.4620  2.3663
23295SOL    HW271327   6.522   4.909   2.022  1.1316  0.9023 -0.6354
23296SOL     OW71328   2.159   5.392   4.707 -0.7495 -0.8069  0.2399
23296SOL    HW171329   2.080   5.436   4.738  0.2275 -1.0078  3.4092
23296SOL    HW271330   2.161   5.309   4.755  1.2482 -0.9099  0.0735
23297SOL     OW71331   1.742   4.518   0.558  0.1652  0.7342 -0.2625
23297SOL    HW171332   1.716   4.550   0.472  0.5783  0.5775 -0.4497
23297SOL    HW271333   1.662   4.484   0.596 -0.2987  2.0118 -0.0454
23298SOL     OW71334   5.823   4.749   4.772  0.8511 -0.0260  0.5136
23298SOL    HW171335   5.843   4.695   4.695  1.2902  0.7597  0.0577
23298SOL    HW271336   5.838   4.691   4.847  0.2622 -0.8543  0.0119
23299SOL     OW71337   3.796   0.811   7.917 -0.5078  0.4501 -0.7762
23299SOL    HW171338   3.888   0.837   7.918 -0.5067  0.4789  0.9083
23299SOL    HW271339   3.774   0.804   7.824  2.3060 -3.4615 -1.4376
23300SOL     OW71340   1.865   7.628   1.059 -0.6810  0.0302  0.3757
23300SOL    HW171341   1.838   7.697   0.998 -0.1793 -0.3738 -0.3261
23300SOL    HW271342   1.959   7.643   1.071 -0.7398 -0.0187  0.8890
23301SOL     OW71343   3.783   2.236   0.142  0.0175  0.0117  0.4106
23301SOL    HW171344   3.836   2.270   0.214 -0.5206  0.2714  0.6935
23301SOL    HW271345   3.825   2.268   0.063  1.8568 -1.9952  0.4789
23302SOL     OW71346   2.610   5.904  10.990  0.2512 -0.2172 -0.3514
23302SOL    HW171347   2.634   5.814  10.969  2.2970  0.6522 -2.0589
23302SOL    HW271348   2.622   5.912  11.084  1.6541 -1.3048 -0.4195
23303SOL     OW71349   7.284   7.912   9.486  0.2296 -0.0909  0.4847
23303SOL    HW171350   7.281   7.894   9.580 -0.8188 -0.5710  0.3750
23303SOL    HW271351   7.371   7.950   9.471  0.0878  0.7847  1.7826
23304SOL     OW71352   4.415   7.764  11.191  0.0666 -0.2417  0.0551
23304SOL    HW171353   4.353   7.835  11.177 -0.3829 -0.7594 -0.6264
23304SOL    HW271354   4.437   7.771  11.284  0.6509  1.2670 -0.1704
23305SOL     OW71355   2.341   6.762  11.385  0.3724  0.4226 -0.0727
23305SOL    HW171356   2.333   6.667  11.379  0.1747  0.4140  0.2946
23305SOL    HW271357   2.270   6.789  11.443  0.2295  0.8290 -0.4290
23306SOL     OW71358   4.132   7.356   8.119  0.0203  0.2701 -0.1512
23306SOL    HW171359   4.097   7.364   8.208 -0.6629  0.6032 -0.4439
23306SOL    HW271360   4.142   7.262   8.105  0.4846  0.2325  0.4132
23307SOL     OW71361   5.187   2.153   0.488 -0.3975  0.2422  0.5840
23307SOL    HW171362   5.271   2.185   0.521  1.2813 -1.1079 -2.0748
23307SOL    HW271363   5.146   2.230   0.449 -0.9520  1.1283  2.7262
23308SOL     OW71364   2.879   5.485  11.815 -1.0693 -0.2154  0.2235
23308SOL    HW171365   2.801   5.506  11.763 -1.0194 -0.4045  0.0716
23308SOL    HW271366   2.851   5.498  11.906 -0.5687  2.1061  0.1053
23309SOL     OW71367   4.331   5.331   9.387  0.1662 -0.0258  0.7435
23309SOL    HW171368   4.389   5.378   9.326  0.7270 -0.7599  0.6865
23309SOL    HW271369   4.391   5.282   9.444 -0.3951 -1.1780  0.3859
23310SOL     OW71370   2.127   7.547   8.411 -0.1062 -0.3319 -0.0525
23310SOL    HW171371   2.205   7.562   8.358  0.1569  1.0367  0.6688
23310SOL    HW271372   2.079   7.629   8.408 -0.7132 -0.6377  0.8081
23311SOL     OW71373   5.914   4.944   4.583  0.1421  0.3410  0.3420
23311SOL    HW171374   5.885   4.889   4.656 -1.0476  0.7098  0.1753
23311SOL    HW271375   5.930   5.030   4.623 -0.5519  0.5545  0.1773
23312SOL     OW71376   2.417   5.994  11.260  0.2669 -0.1939  0.0182
23312SOL    HW171377   2.433   6.088  11.265  0.5413 -0.2588  0.3757
23312SOL    HW271378   2.467   5.957  11.332 -0.7341 -0.4993  0.5701
23313SOL     OW71379   6.990   3.732  12.119  0.4266 -0.4118  0.1378
23313SOL    HW171380   6.974   3.698  12.031 -0.4760 -0.3883  0.2927
23313SOL    HW271381   6.904   3.759  12.151  1.0685  2.0638 -0.0007
23314SOL     OW71382   2.938   4.121  10.121 -0.5679 -0.6168  0.4730
23314SOL    HW171383   3.001   4.120  10.193 -0.0839  1.0458  0.1256
23314SOL    HW271384   2.991   4.137  10.043 -1.1566 -1.7797 -0.1861
23315SOL     OW71385   4.392   2.689   8.738 -0.0018  0.5444  0.1378
23315SOL    HW171386   4.304   2.656   8.721  0.2384 -0.1038  0.1476
23315SOL    HW271387   4.421   2.725   8.654 -1.2880  3.2211  0.7307
23316SOL     OW71388   2.743   0.180   1.072 -0.4571 -0.1122  0.2115
23316SOL    HW171389   2.677   0.114   1.091  0.3066 -1.7255 -2.2560
23316SOL    HW271390   2.803   0.137   1.011  1.0694  2.3231 -0.1366
23317SOL     OW71391   4.625   5.454   0.109 -0.4950  0.1120 -0.4278
23317SOL    HW171392   4.600   5.409   0.028 -1.5900 -2.2219  1.0905
23317SOL    HW271393   4.618   5.387   0.177  1.9031  1.5477  1.4302
23318SOL     OW71394   0.712   3.816   1.298  0.1802 -0.1981  0.4331
23318SOL    HW171395   0.757   3.842   1.378  1.6014 -1.0606 -0.0422
23318SOL    HW271396   0.669   3.895   1.267  1.7781  0.8105  0.6779
23319SOL     OW71397   5.797   5.928   9.624  0.1582 -0.2320  0.2957
23319SOL    HW171398   5.850   5.978   9.687  1.3904 -0.3051 -0.6511
23319SOL    HW271399   5.816   5.969   9.540  0.7133 -1.8905 -0.4203
23320SOL     OW71400   3.070   7.206   3.545 -0.4062 -0.5091  0.5435
23320SOL    HW171401   3.037   7.296   3.554  1.3171  0.0402  1.9303
23320SOL    HW271402   3.009   7.154   3.597 -0.2868  0.1909  1.4275
23321SOL     OW71403   4.829   3.228   5.611  0.8359  0.0871 -0.1655
23321SOL    HW171404   4.756   3.184   5.568 -0.1693  0.1123  1.4109
23321SOL    HW271405   4.841   3.180   5.693  1.5194  1.0670  0.3327
23322SOL     OW71406   0.543   6.199  10.815 -0.0651  0.5467  0.2192
23322SOL    HW171407   0.546   6.294  10.820  0.4576  0.4530  2.5060
23322SOL    HW271408   0.634   6.172  10.817 -0.1605 -0.0123 -1.4066
23323SOL     OW71409   6.765   2.631   7.768 -0.3090 -0.0499  0.1127
23323SOL    HW171410   6.861   2.636   7.770 -0.2753 -0.8393  0.7823
23323SOL    HW271411   6.746   2.554   7.715 -0.6106  0.7766 -1.0153
23324SOL     OW71412   3.347   5.400   1.951  0.3262  0.6636 -0.3297
23324SOL    HW171413   3.302   5.390   1.867  1.9096 -3.5079 -0.9400
23324SOL    HW271414   3.300   5.342   2.011  2.0200 -0.1808  0.2622
23325SOL     OW71415   2.102   5.721  10.062 -0.0161  0.1358 -0.8445
23325SOL    HW171416   2.101   5.817  10.062 -2.6824  0.1878 -0.0904
23325SOL    HW271417   2.023   5.697  10.014  0.1872 -1.6706 -0.3255
23326SOL     OW71418   5.534   1.000   9.694  0.0423  0.1407  0.4133
23326SOL    HW171419   5.556   1.066   9.759  0.7238 -0.6264  0.9878
23326SOL    HW271420   5.558   0.917   9.736  0.6723 -0.3611 -0.8883
23327SOL     OW71421   2.629   3.274  10.815 -0.0989 -0.6579  0.0221
23327SOL    HW171422   2.648   3.222  10.893  2.7313 -0.0170 -0.1555
23327SOL    HW271423   2.588   3.211  10.755  2.3040 -2.5346  0.1808
23328SOL     OW71424   3.394   6.409   0.734 -0.0540  0.2009  0.7821
23328SOL    HW171425   3.460   6.364   0.786  0.0239  0.2007  0.6826
23328SOL    HW271426   3.364   6.481   0.790  0.5836  0.6707  0.5255
23329SOL     OW71427   4.375   2.995   9.893 -0.0803 -0.3401  0.1727
23329SOL    HW171428   4.314   3.057   9.933 -1.8681 -2.8606  1.6011
23329SOL    HW271429   4.446   2.988   9.958 -0.4477 -0.6315  0.5491
23330SOL     OW71430   5.951   6.956  10.286  0.8536 -0.4099 -0.2272
23330SOL    HW171431   5.862   6.921  10.293 -0.1153  1.9181  0.0686
23330SOL    HW271432   5.992   6.934  10.370  0.5389 -1.3825 -0.3129
23331SOL     OW71433   5.206   6.437   2.151  0.3244 -0.1133 -0.2752
23331SOL    HW171434   5.234   6.370   2.212  1.4695  0.4489 -0.1560
23331SOL    HW271435   5.164   6.389   2.079  0.6871 -0.9074  0.0431
23332SOL     OW71436   2.229   0.562   7.508  0.5541 -0.2949 -0.4421
23332SOL    HW171437   2.262   0.566   7.597  1.4142 -0.9704 -0.7201
23332SOL    HW271438   2.287   0.620   7.458  0.4249 -0.3622 -0.6730
23333SOL     OW71439   2.829   2.297  12.358 -0.4206 -0.2043  0.0757
23333SOL    HW171440   2.888   2.283  12.432 -0.3484  1.7621  0.4449
23333SOL    HW271441   2.874   2.359  12.302 -0.7108 -1.2591 -1.3942
23334SOL     OW71442   2.634   5.149   4.985 -0.6464  0.1480 -0.1144
23334SOL    HW171443   2.593   5.160   4.899  0.1108 -0.2774 -0.5415
23334SOL    HW271444   2.699   5.080   4.971 -0.6932 -0.0989  0.8670
23335SOL     OW71445   3.250   7.410  10.669 -0.5196 -0.0533  0.4538
23335SOL    HW171446   3.251   7.365  10.585 -0.1659  1.8496 -0.6200
23335SOL    HW271447   3.259   7.340  10.734  0.2302 -1.4820 -1.1135
23336SOL     OW71448   4.653   2.198   7.933  0.2601 -0.1169 -0.1355
23336SOL    HW171449   4.725   2.173   7.991  0.4199  0.8043  0.0825
23336SOL    HW271450   4.579   2.211   7.992 -0.0928 -1.0576 -0.3593
23337SOL     OW71451   1.604   4.906   6.202 -0.2164 -0.5286  0.2850
23337SOL    HW171452   1.652   4.987   6.213 -0.1123 -0.4007 -0.9438
23337SOL    HW271453   1.539   4.906   6.272  1.2442 -0.4936  1.6987
23338SOL     OW71454   6.136   4.477   9.914 -0.2004 -0.2586  0.1935
23338SOL    HW171455   6.046   4.453   9.893 -0.4056  1.7209 -1.5612
23338SOL    HW271456   6.128   4.562   9.959  0.7857  0.6247 -1.1982
23339SOL     OW71457   3.218   7.604   0.669  0.7114  0.3136 -0.4942
23339SOL    HW171458   3.163   7.608   0.591  1.1141 -0.3937 -0.8229
23339SOL    HW271459   3.205   7.515   0.703 -1.0429  1.2071  1.4258
23340SOL     OW71460   7.614   4.200   8.705 -0.4788 -0.5970 -0.1832
23340SOL    HW171461   7.526   4.230   8.685 -0.3822  0.0208  0.2967
23340SOL    HW271462   7.654   4.185   8.619 -1.4976 -2.2591 -0.4113
23341SOL     OW71463   4.082   6.844   1.804 -0.1200 -0.7139  0.0389
23341SOL    HW171464   4.041   6.845   1.890 -0.9523  1.0664 -0.3335
23341SOL    HW271465   4.166   6.888   1.816  0.1100 -1.1522  0.0753
23342SOL     OW71466   5.775   2.943   5.472 -0.0104  0.1587  0.3122
23342SOL    HW171467   5.773   3.032   5.508 -0.7697  1.4342 -2.5588
23342SOL    HW271468   5.694   2.902   5.503 -0.2975  0.9395  0.6179
23343SOL     OW71469   2.784   7.174  11.218  0.3758  0.1428 -0.6041
23343SOL    HW171470   2.690   7.176  11.237  0.2224  1.2308 -1.3455
23343SOL    HW271471   2.790   7.142  11.127  0.7202  0.0530 -0.5519
23344SOL     OW71472   7.350   5.896   3.487  0.2670 -0.0264  0.1683
23344SOL    HW171473   7.352   5.819   3.544  0.6400  0.3554  0.6917
23344SOL    HW271474   7.304   5.867   3.408  1.1668 -1.0318 -0.0097
23345SOL     OW71475   4.438   7.902   8.175  0.7041 -0.0799 -0.0711
23345SOL    HW171476   4.420   7.874   8.265  0.9535 -0.8428 -0.2478
23345SOL    HW271477   4.369   7.860   8.124  0.3591  0.6326 -0.2004
23346SOL     OW71478   1.691   2.370   5.599 -0.0844 -0.0372  0.3036
23346SOL    HW171479   1.645   2.353   5.517 -0.0173  1.7679 -0.1388
23346SOL    HW271480   1.783   2.378   5.575  0.2184 -1.4287  0.8728
23347SOL     OW71481   0.125   7.473   0.879 -0.3819 -0.1168 -0.0093
23347SOL    HW171482   0.206   7.424   0.865 -1.0779 -0.8541 -1.8279
23347SOL    HW271483   0.149   7.564   0.860 -0.0059 -0.3493 -0.6913
23348SOL     OW71484   3.642   1.996   1.693  0.5131 -0.7003  0.3890
23348SOL    HW171485   3.696   1.920   1.671  1.8687 -0.2678  2.0155
23348SOL    HW271486   3.702   2.070   1.690 -0.8777  0.4764 -1.6339
23349SOL     OW71487   6.778   5.167  11.642 -0.7355 -0.1230  0.2576
23349SOL    HW171488   6.808   5.258  11.643  0.5576 -0.5310  0.1250
23349SOL    HW271489   6.779   5.140  11.734  0.1096 -0.3796  0.1803
23350SOL     OW71490   6.725   6.327   5.900 -0.2709 -0.5285 -0.0377
23350SOL    HW171491   6.705   6.323   5.993 -0.7145 -0.0508 -0.1081
23350SOL    HW271492   6.819   6.310   5.895 -0.1271  0.0617  0.5507
23351SOL     OW71493   7.648   5.885   3.571  0.3166  0.0021  0.0288
23351SOL    HW171494   7.552   5.877   3.566  0.2705  0.1191  0.6481
23351SOL    HW271495   7.671   5.843   3.654  0.7681  0.2745  0.0430
23352SOL     OW71496   1.039   0.627   2.168 -0.3594  0.1448 -0.5625
23352SOL    HW171497   0.973   0.580   2.219 -0.4477  0.5949 -0.2513
23352SOL    HW271498   1.100   0.660   2.234 -0.9060  1.4185 -0.6680
23353SOL     OW71499   6.451   3.804   9.251  0.3932 -0.3799  0.3606
23353SOL    HW171500   6.365   3.770   9.225  0.1562 -0.0558  0.6996
23353SOL    HW271501   6.507   3.788   9.176  0.0857 -0.7854  0.2112
23354SOL     OW71502   4.088   2.631   8.777 -0.1851 -0.0079 -0.4825
23354SOL    HW171503   4.100   2.636   8.682  2.3258  0.6608 -0.1889
23354SOL    HW271504   4.130   2.550   8.803 -0.3129  0.1170  0.1270
23355SOL     OW71505   3.461   3.909   2.708 -0.1359  0.2165 -0.4329
23355SOL    HW171506   3.451   3.892   2.801  0.0406 -1.4524 -0.6818
23355SOL    HW271507   3.536   3.969   2.702 -0.1171  0.2897  0.4855
23356SOL     OW71508   0.704   7.752   5.370 -0.5199  0.2050  0.0821
23356SOL    HW171509   0.704   7.830   5.426 -2.1503  1.5720 -1.6832
23356SOL    HW271510   0.711   7.786   5.281  0.4092 -1.8040 -0.6646
23357SOL     OW71511   7.489   3.114  12.270 -0.5517  0.2268  0.0720
23357SOL    HW171512   7.521   3.147  12.186 -0.0821  0.1224  0.2088
23357SOL    HW271513   7.443   3.033  12.247 -0.8369  0.4465 -0.1411
23358SOL     OW71514   6.108   2.599   2.757 -0.3240  0.5241 -0.1641
23358SOL    HW171515   6.075   2.520   2.715 -0.4131  0.3946  0.1526
23358SOL    HW271516   6.100   2.583   2.851 -0.3344  0.9021 -0.0952
23359SOL     OW71517   1.771   3.829   8.788  0.4470 -0.0295  0.3553
23359SOL    HW171518   1.738   3.908   8.745  1.3829  0.8221  1.1306
23359SOL    HW271519   1.770   3.762   8.721  1.1416  1.0614 -0.7932
23360SOL     OW71520   2.312   6.033   2.142 -0.1120 -0.0759  0.2047
23360SOL    HW171521   2.378   6.093   2.175  1.2360 -1.0128 -0.7116
23360SOL    HW271522   2.273   5.995   2.220  0.5443  0.3693  0.7572
23361SOL     OW71523   0.982   0.592   6.707  0.0255 -0.1782  0.1791
23361SOL    HW171524   0.946   0.515   6.752  1.0203  0.3061  1.8927
23361SOL    HW271525   1.066   0.563   6.673 -0.7258 -0.5420 -1.4435
23362SOL     OW71526   3.983   5.985   2.121 -0.2202 -0.1742  0.6318
23362SOL    HW171527   3.989   6.031   2.204  0.5717  0.7626  0.0849
23362SOL    HW271528   4.038   6.036   2.061 -2.8454  0.6965 -1.1807
23363SOL     OW71529   2.221   5.834  10.530 -0.4925 -0.0760  1.3019
23363SOL    HW171530   2.152   5.890  10.493 -0.6906 -0.8325  0.4903
23363SOL    HW271531   2.299   5.854  10.478 -0.7730 -1.1456  0.4434
23364SOL     OW71532   5.506   4.145   3.838  0.4308  0.5657 -0.2520
23364SOL    HW171533   5.474   4.055   3.846  0.7825  0.3883 -0.8149
23364SOL    HW271534   5.428   4.199   3.851  0.2817  0.1993  0.4825
23365SOL     OW71535   3.195   3.212   9.097  0.4390 -0.2397 -0.1375
23365SOL    HW171536   3.152   3.169   9.023  0.6976 -0.8448  0.0557
23365SOL    HW271537   3.286   3.182   9.091  0.5691  0.1017  0.1362
23366SOL     OW71538   6.472   3.691  11.080 -0.2843  0.5888 -0.3128
23366SOL    HW171539   6.500   3.675  10.990 -0.5514  0.1584 -0.3262
23366SOL    HW271540   6.530   3.637  11.133 -2.7786 -2.6494 -0.5184
23367SOL     OW71541   5.116   0.533   6.635  0.2095  0.1557  0.3700
23367SOL    HW171542   5.120   0.466   6.567 -0.6308  1.2518 -0.8177
23367SOL    HW271543   5.107   0.616   6.587 -3.1199  0.7770  1.7988
23368SOL     OW71544   2.671   4.321   9.139  0.2513 -0.3983 -0.2883
23368SOL    HW171545   2.745   4.341   9.196  0.4770 -0.3901 -0.5773
23368SOL    HW271546   2.604   4.286   9.197  0.0375  0.7098  0.1556
23369SOL     OW71547   2.236   4.033   5.112 -0.5970  0.8117  0.0258
23369SOL    HW171548   2.293   4.004   5.183 -2.1626  0.5432  1.2239
23369SOL    HW271549   2.277   4.114   5.080  2.2824 -1.0628 -1.4766
23370SOL     OW71550   4.606   6.129   4.554 -0.2643 -0.6138  0.0189
23370SOL    HW171551   4.593   6.035   4.547  0.2737 -0.5799 -1.9542
23370SOL    HW271552   4.533   6.159   4.608 -1.9806 -1.8419 -1.4884
23371SOL     OW71553   3.165   5.843   7.566 -0.0037  0.0193 -0.0087
23371SOL    HW171554   3.223   5.873   7.497 -0.9951  0.2798 -0.7465
23371SOL    HW271555   3.138   5.755   7.539 -1.3700  0.5911 -0.6238
23372SOL     OW71556   4.173   0.964   4.030 -0.2060  0.4088  0.1161
23372SOL    HW171557   4.131   0.975   3.945 -0.7634  2.3637  0.6031
23372SOL    HW271558   4.256   1.010   4.021  0.8359 -1.3841 -0.0643
23373SOL     OW71559   0.114   7.014  10.596  0.1398  0.3804 -0.5537
23373SOL    HW171560   0.164   7.095  10.585  1.3056 -0.3709 -0.9678
23373SOL    HW271561   0.095   6.985  10.507 -0.8537  0.5340 -0.4009
23374SOL     OW71562   0.448   7.020   1.845  0.0686 -0.2455 -0.2102
23374SOL    HW171563   0.361   7.014   1.886  0.5955  0.7631  1.1652
23374SOL    HW271564   0.508   6.991   1.914  0.9575  1.0017 -0.4257
23375SOL     OW71565   3.579   2.782   6.950  0.8485 -0.4847 -0.2540
23375SOL    HW171566   3.497   2.759   6.994 -0.2487  1.8617 -0.9452
23375SOL    HW271567   3.618   2.850   7.005  0.4184  1.0939 -1.8045
23376SOL     OW71568   6.168   4.514  12.202 -0.4137 -0.2217  0.4477
23376SOL    HW171569   6.129   4.575  12.140 -1.2563 -2.0607 -0.8917
23376SOL    HW271570   6.100   4.499  12.268  0.0918  0.8724  1.2575
23377SOL     OW71571   2.811   1.564   1.528 -0.3638 -0.5092  0.7055
23377SOL    HW171572   2.901   1.593   1.520 -0.5819  0.4629  1.4962
23377SOL    HW271573   2.808   1.479   1.484  1.4744 -1.6538  2.5919
23378SOL     OW71574   3.322   0.531   6.318 -0.0092  0.0193  0.2978
23378SOL    HW171575   3.235   0.529   6.358 -0.7481  1.3555 -1.1309
23378SOL    HW271576   3.317   0.467   6.246  0.4799 -0.5103  0.7226
23379SOL     OW71577   2.533   2.911  10.642 -0.0368  0.0779  0.4336
23379SOL    HW171578   2.586   2.845  10.597  2.4339  0.5806  2.3731
23379SOL    HW271579   2.525   2.877  10.732 -3.6860 -0.2798  0.1200
23380SOL     OW71580   6.296   0.421   6.986  0.0726 -0.3350 -0.3139
23380SOL    HW171581   6.209   0.442   7.019  0.4689 -0.2301  0.6988
23380SOL    HW271582   6.346   0.395   7.063  0.6344 -1.4919 -1.0254
23381SOL     OW71583   4.317   7.026   3.455  0.1223 -0.1124 -0.1419
23381SOL    HW171584   4.342   7.056   3.543 -1.7329  0.4724  0.2231
23381SOL    HW271585   4.399   6.997   3.415  1.0987  0.2192  1.5488
23382SOL     OW71586   0.278   2.704   8.509 -0.5342 -0.1593  0.9973
23382SOL    HW171587   0.218   2.747   8.447  0.6377 -0.9483 -0.7737
23382SOL    HW271588   0.227   2.631   8.544 -0.9386 -0.2523  0.2433
23383SOL     OW71589   5.612   0.669   8.333 -0.5075  0.4877 -0.0763
23383SOL    HW171590   5.575   0.690   8.247  0.6381 -0.0238 -0.7155
23383SOL    HW271591   5.681   0.734   8.346  2.4295 -2.0526 -1.6551
23384SOL     OW71592   3.587   2.641   3.914 -0.0715  0.2158 -0.1426
23384SOL    HW171593   3.536   2.561   3.913  0.1648  0.0352  0.9234
23384SOL    HW271594   3.554   2.692   3.841  0.2550 -1.1397 -1.2753
23385SOL     OW71595   6.668   7.012   7.243 -0.0019  0.0728 -0.5089
23385SOL    HW171596   6.744   6.953   7.243  1.2913  1.5986 -2.7024
23385SOL    HW271597   6.701   7.094   7.278 -1.3496  0.0915  0.8545
23386SOL     OW71598   6.400   3.301   7.973  0.4855 -0.2096  0.0643
23386SOL    HW171599   6.309   3.307   8.002  0.0893 -1.7291 -0.7314
23386SOL    HW271600   6.394   3.261   7.886  1.8988 -0.0102 -0.1438
23387SOL     OW71601   2.143   7.289   7.043 -0.5239 -0.3533 -0.1289
23387SOL    HW171602   2.236   7.297   7.063 -0.1213  0.5407 -2.1977
23387SOL    HW271603   2.117   7.206   7.083  1.0345 -0.4011  0.8540
23388SOL     OW71604   1.087   1.768   8.446 -0.3510  0.5108 -0.2386
23388SOL    HW171605   1.050   1.708   8.382 -0.7852 -0.1726  0.6213
23388SOL    HW271606   1.016   1.829   8.466 -0.2363  0.6853 -0.3616
23389SOL     OW71607   4.398   6.974   8.360 -0.0994 -0.0008  0.2578
23389SOL    HW171608   4.382   7.061   8.397 -0.0111  0.3115 -0.4259
23389SOL    HW271609   4.485   6.980   8.320 -0.8296  0.1646 -1.3907
23390SOL     OW71610   1.415   6.123   8.542  0.1455  0.5490  0.2708
23390SOL    HW171611   1.469   6.180   8.488  0.0647 -0.4492 -0.9177
23390SOL    HW271612   1.336   6.174   8.561  1.1525  1.7311  1.3711
23391SOL     OW71613   2.995   2.092   2.256  0.1852  0.7000  0.1144
23391SOL    HW171614   2.982   2.162   2.191 -0.7877  0.1419 -0.3187
23391SOL    HW271615   3.077   2.115   2.300  2.0568 -0.0140 -2.7422
23392SOL     OW71616   4.972   1.204  12.182  0.2148 -0.1443  0.3006
23392SOL    HW171617   4.922   1.206  12.101  1.7114  0.1656 -0.6664
23392SOL    HW271618   5.063   1.193  12.153  0.8364  0.4599  1.9132
23393SOL     OW71619   7.774   3.988   5.938  0.2263  0.0222 -0.4242
23393SOL    HW171620   7.844   3.945   5.987  0.2417 -0.0345 -0.4957
23393SOL    HW271621   7.711   4.015   6.004  0.5873  0.5761 -0.3019
23394SOL     OW71622   4.504   2.820   7.186 -0.7037  0.0288 -0.6717
23394SOL    HW171623   4.445   2.894   7.199  0.6368  0.8235  1.6208
23394SOL    HW271624   4.465   2.749   7.238 -1.0158 -0.2998 -1.3464
23395SOL     OW71625   6.859   1.130   2.530  0.4057 -0.0707 -0.4472
23395SOL    HW171626   6.901   1.212   2.503  0.4309  0.4128  0.9896
23395SOL    HW271627   6.925   1.086   2.584 -1.3249  1.4249  3.2015
23396SOL     OW71628   5.788   7.918   1.345  0.0724  0.2931 -0.1369
23396SOL    HW171629   5.843   7.844   1.370  2.3962  2.1720  0.6977
23396SOL    HW271630   5.744   7.944   1.426  2.5366  2.3200  0.6825
23397SOL     OW71631   1.139   6.165   2.928 -0.2650 -0.0662  0.1397
23397SOL    HW171632   1.184   6.228   2.872 -1.6791  0.6127 -0.2746
23397SOL    HW271633   1.090   6.109   2.867 -1.6092  0.5099  0.6558
23398SOL     OW71634   7.774   1.706   5.336  0.0217 -0.0595 -0.5638
23398SOL    HW171635   7.828   1.633   5.364  0.8623  0.6766 -0.2206
23398SOL    HW271636   7.740   1.744   5.417 -0.7989 -0.3540 -0.7652
23399SOL     OW71637   3.921   2.188  11.841  0.9468 -0.3915 -0.0537
23399SOL    HW171638   3.896   2.204  11.932  2.3162 -0.6095  0.3687
23399SOL    HW271639   4.014   2.208  11.837  1.2555 -1.8838 -1.0413
23400SOL     OW71640   7.798   4.347   5.382 -0.2541 -0.6728 -0.1259
23400SOL    HW171641   7.723   4.288   5.391 -1.5033  0.8878  0.2563
23400SOL    HW271642   7.758   4.433   5.367  1.3670  0.6024  2.2878
23401SOL     OW71643   6.739   6.891   5.278  0.3687  0.2227  0.1395
23401SOL    HW171644   6.711   6.933   5.198  0.2323 -0.1600 -0.0145
23401SOL    HW271645   6.835   6.892   5.274  0.3699  0.5963  0.1835
23402SOL     OW71646   4.334   6.204   3.766 -0.3148  0.0599 -0.4128
23402SOL    HW171647   4.392   6.264   3.720 -0.6564 -0.8198 -2.0718
23402SOL    HW271648   4.322   6.131   3.706 -0.7173 -1.2093  1.1410
23403SOL     OW71649   4.233   4.753   9.279  0.0650 -0.4914  0.1886
23403SOL    HW171650   4.267   4.804   9.353  0.4183 -1.8020  0.9436
23403SOL    HW271651   4.280   4.789   9.203  1.7100 -0.9293  0.9471
23404SOL     OW71652   3.469   2.244   3.693  0.0753 -0.0661 -0.1365
23404SOL    HW171653   3.477   2.154   3.661  0.5491 -0.3375  0.7201
23404SOL    HW271654   3.461   2.297   3.613 -0.0336 -0.8466 -0.6540
23405SOL     OW71655   6.663   0.778  11.081 -0.2709 -0.1679  0.2865
23405SOL    HW171656   6.697   0.813  11.164  1.1852  0.4135 -0.5286
23405SOL    HW271657   6.568   0.783  11.091 -0.1320  0.0850  1.8339
23406SOL     OW71658   6.041   6.894   1.095  0.3984 -0.5423 -0.4566
23406SOL    HW171659   6.131   6.926   1.095  0.3481 -0.3926 -0.1667
23406SOL    HW271660   5.988   6.970   1.070 -0.2053  1.1374  4.7111
23407SOL     OW71661   4.703   1.388   1.166 -0.0123 -0.8419 -0.1259
23407SOL    HW171662   4.615   1.353   1.158 -0.1340 -0.0891 -3.2984
23407SOL    HW271663   4.691   1.483   1.166  0.7972 -0.7335 -0.3601
23408SOL     OW71664   2.792   3.182   7.278 -0.0421 -0.1686  0.9042
23408SOL    HW171665   2.790   3.104   7.222  2.7058  1.2857 -1.5122
23408SOL    HW271666   2.813   3.149   7.365  2.8277 -2.1326 -0.3751
23409SOL     OW71667   2.203   0.436   6.177 -0.2875  0.1867 -0.4272
23409SOL    HW171668   2.231   0.440   6.086 -0.9470  1.7633 -0.5863
23409SOL    HW271669   2.128   0.377   6.177  0.4863 -0.8211 -0.6689
23410SOL     OW71670   6.360   7.003  10.825 -0.1679 -0.1323 -0.0036
23410SOL    HW171671   6.425   6.988  10.757  1.0176  1.1283  0.7903
23410SOL    HW271672   6.406   6.984  10.907 -0.6331  1.2150  0.6033
23411SOL     OW71673   1.195   5.279   1.610 -0.0061  0.1018 -0.5070
23411SOL    HW171674   1.283   5.245   1.595  0.8132  1.4432  0.9523
23411SOL    HW271675   1.168   5.315   1.525  0.4894 -1.0743 -1.1811
23412SOL     OW71676   4.500   7.611   6.079  0.3046 -0.3118 -0.3384
23412SOL    HW171677   4.511   7.517   6.064  0.7644 -0.2784 -0.2112
23412SOL    HW271678   4.434   7.616   6.148  1.1902 -0.5882  0.5640
23413SOL     OW71679   2.635   5.803   7.600 -0.1314  0.1651  0.1189
23413SOL    HW171680   2.687   5.758   7.533  0.4979  0.8124  0.1617
23413SOL    HW271681   2.692   5.874   7.631 -0.7758  0.4522  0.6696
23414SOL     OW71682   0.477   1.295   4.539  0.2125  0.4246 -0.1608
23414SOL    HW171683   0.430   1.313   4.621 -1.0374  1.2268 -1.0164
23414SOL    HW271684   0.415   1.245   4.487  0.7112  0.5831 -0.9176
23415SOL     OW71685   0.876   5.582   8.058 -0.6498 -0.3895  0.4660
23415SOL    HW171686   0.846   5.551   7.973  0.1348  0.8228 -0.2837
23415SOL    HW271687   0.969   5.600   8.045 -0.5526 -0.0600  1.5439
23416SOL     OW71688   6.492   1.142   4.690 -0.5726 -0.4631 -0.0171
23416SOL    HW171689   6.527   1.088   4.761 -0.2582 -0.6442 -0.3041
23416SOL    HW271690   6.429   1.086   4.645 -0.5875 -0.4342 -0.0326
23417SOL     OW71691   5.252   1.025   6.403  0.5689 -0.5242 -0.1330
23417SOL    HW171692   5.243   1.090   6.472  1.4860 -0.7813  0.2447
23417SOL    HW271693   5.346   1.020   6.386  0.3116  0.1235 -1.9796
23418SOL     OW71694   2.901   6.560   9.519  0.0947 -0.4453 -0.4626
23418SOL    HW171695   2.869   6.494   9.580  0.4699 -0.1511  0.0472
23418SOL    HW271696   2.919   6.511   9.438 -2.6128 -0.4911 -1.1377
23419SOL     OW71697   5.836   6.606   1.731  0.0842  0.9738  0.5871
23419SOL    HW171698   5.759   6.555   1.705  0.7097  0.6260 -0.6505
23419SOL    HW271699   5.854   6.663   1.657  0.6835  1.4576  1.0937
23420SOL     OW71700   7.375   0.955   2.430 -0.9052 -0.0877 -0.0798
23420SOL    HW171701   7.415   0.973   2.345  2.1574 -0.9394  1.0241
23420SOL    HW271702   7.410   1.024   2.487  0.4021 -1.7795  1.2874
23421SOL     OW71703   6.773   4.097   3.818  0.0068 -0.1797  0.2987
23421SOL    HW171704   6.712   4.155   3.864 -1.0296 -1.4531  0.5737
23421SOL    HW271705   6.808   4.039   3.886  1.2352  0.2478  0.0707
23422SOL     OW71706   6.978   2.925   2.448  0.2759  0.5327 -0.7708
23422SOL    HW171707   7.072   2.926   2.428  0.6205  0.3063  0.6902
23422SOL    HW271708   6.936   2.950   2.366  1.6782  1.8080 -1.1585
23423SOL     OW71709   4.465   0.974   1.276  0.0948  0.0189 -0.4555
23423SOL    HW171710   4.418   0.892   1.292 -0.1048  0.4045  1.1020
23423SOL    HW271711   4.497   1.000   1.363  0.1426  1.5897 -0.9264
23424SOL     OW71712   5.603   2.451   6.971 -0.3065  0.2753  0.0744
23424SOL    HW171713   5.548   2.442   6.894 -0.6045  0.7579  0.2286
23424SOL    HW271714   5.552   2.412   7.042 -0.4805  0.7748  0.2286
23425SOL     OW71715   2.244   6.633   8.260 -0.0317 -0.1114  0.4981
23425SOL    HW171716   2.213   6.710   8.307 -2.2132 -0.4797 -0.2608
23425SOL    HW271717   2.334   6.655   8.236 -0.5964  2.2162  0.2529
23426SOL     OW71718   1.384   7.907   2.208 -0.2156 -0.1242  0.0096
23426SOL    HW171719   1.374   7.899   2.303 -0.1643 -1.7162 -0.0969
23426SOL    HW271720   1.471   7.946   2.197  1.3041 -3.0896  0.6073
23427SOL     OW71721   0.798   6.734   3.696  0.1746  0.0413  0.3140
23427SOL    HW171722   0.718   6.751   3.745 -0.8501 -1.7360 -0.6423
23427SOL    HW271723   0.864   6.716   3.764 -0.3263  1.1093  1.1010
23428SOL     OW71724   2.268   3.328   3.402  0.0513  0.0162  0.3269
23428SOL    HW171725   2.336   3.365   3.345  2.1072 -0.6436  2.2216
23428SOL    HW271726   2.237   3.402   3.453 -1.8041  0.6123 -1.5181
23429SOL     OW71727   3.675   6.826   1.719  0.5084 -0.4474 -0.2950
23429SOL    HW171728   3.604   6.788   1.667  0.2248  1.2663 -1.2060
23429SOL    HW271729   3.656   6.797   1.809 -0.5788 -1.1114 -0.7130
23430SOL     OW71730   6.524   4.936   6.917 -0.0668 -0.7367  0.5685
23430SOL    HW171731   6.584   4.872   6.956 -0.3387 -2.0814 -1.0815
23430SOL    HW271732   6.497   4.896   6.834  0.5098  1.9331 -1.0337
23431SOL     OW71733   5.285   5.899   1.661 -0.0446 -0.3534 -0.0839
23431SOL    HW171734   5.339   5.877   1.585  0.3823 -0.3619  0.2194
23431SOL    HW271735   5.213   5.951   1.625 -0.2137 -0.9246 -0.5860
23432SOL     OW71736   4.206   4.911   9.740  0.2461 -0.1433  0.4038
23432SOL    HW171737   4.275   4.872   9.794  0.6403 -0.5630 -0.3926
23432SOL    HW271738   4.244   4.992   9.707  0.2661 -0.2465  0.1723
23433SOL     OW71739   0.726   2.673   0.115 -0.5635 -0.2811 -0.3244
23433SOL    HW171740   0.784   2.598   0.130 -0.3722  0.0864  0.9019
23433SOL    HW271741   0.679   2.684   0.198 -1.8606 -0.1046 -1.0534
23434SOL     OW71742   5.414   0.796   0.042  0.2757  0.1309  0.4532
23434SOL    HW171743   5.501   0.834   0.033  0.8600 -1.2304  0.0532
23434SOL    HW271744   5.418   0.716  -0.010 -0.1338 -1.6694  3.0048
23435SOL     OW71745   3.607   7.775   4.007 -0.2653 -0.1909  0.1583
23435SOL    HW171746   3.632   7.819   3.925 -1.7949  0.3810 -0.0298
23435SOL    HW271747   3.657   7.694   4.006 -1.4941 -1.0435 -2.2400
23436SOL     OW71748   5.124   3.168   4.139  0.6683 -0.1973  0.2797
23436SOL    HW171749   5.041   3.146   4.182  0.1623  2.0708  0.5458
23436SOL    HW271750   5.185   3.102   4.172 -0.8028 -1.4301  0.6985
23437SOL     OW71751   2.413   5.320   5.309  0.2199  0.3573 -0.1427
23437SOL    HW171752   2.356   5.376   5.362 -0.8538 -0.6194 -0.2208
23437SOL    HW271753   2.432   5.245   5.366  0.3740  0.0620 -0.5793
23438SOL     OW71754   2.172   1.006   1.684  0.5750 -0.0338  0.2937
23438SOL    HW171755   2.238   1.028   1.751  1.3669 -1.4026 -0.0051
23438SOL    HW271756   2.217   1.021   1.601  0.7516 -1.6076  0.0879
23439SOL     OW71757   3.768   2.012   9.131  0.2505 -0.6015 -0.0645
23439SOL    HW171758   3.743   1.940   9.072 -0.5548  0.0630 -0.5544
23439SOL    HW271759   3.719   1.994   9.211  0.1107 -0.6412 -0.1574
23440SOL     OW71760   3.865   4.891  10.770 -0.7378 -0.3465 -0.2005
23440SOL    HW171761   3.911   4.841  10.702  0.4402 -0.3398  0.5733
23440SOL    HW271762   3.850   4.828  10.841  0.2825  0.2445  0.5601
23441SOL     OW71763   6.458   1.347   0.739  0.5728  0.0360  0.0336
23441SOL    HW171764   6.521   1.375   0.672  0.7769  1.3097  0.7182
23441SOL    HW271765   6.471   1.253   0.747  1.3473  0.0552 -0.9047
23442SOL     OW71766   1.713   3.851   6.283 -0.4843  0.3079  0.2923
23442SOL    HW171767   1.765   3.776   6.257 -0.5863  1.0959 -2.5598
23442SOL    HW271768   1.641   3.854   6.219 -1.8572  1.4669  1.7782
23443SOL     OW71769   2.640   3.817   9.572  0.6166  0.1030  0.2602
23443SOL    HW171770   2.605   3.728   9.575  1.1981 -0.1091  1.7846
23443SOL    HW271771   2.563   3.873   9.563  0.3002 -0.5625 -1.5364
23444SOL     OW71772   5.978   2.209   0.774  0.3287  0.3227 -0.3705
23444SOL    HW171773   5.903   2.226   0.832 -1.2598 -2.2385 -1.4897
23444SOL    HW271774   6.015   2.296   0.757 -0.4372  1.3787  2.6983
23445SOL     OW71775   2.026   2.835   8.459 -0.5072  0.2661 -0.4748
23445SOL    HW171776   1.977   2.801   8.385 -0.3930  1.1667 -0.9837
23445SOL    HW271777   2.081   2.762   8.487 -2.7241 -1.0429  0.6662
23446SOL     OW71778   2.896   7.753   7.162 -0.1439  0.2504  0.1310
23446SOL    HW171779   2.815   7.754   7.213 -0.2057  1.8729  0.0465
23446SOL    HW271780   2.950   7.687   7.206 -0.4980  1.0206  1.8269
23447SOL     OW71781   3.655   3.964  11.942  0.5633 -0.1395 -0.6228
23447SOL    HW171782   3.648   3.910  12.021  1.1719 -0.9546 -1.1111
23447SOL    HW271783   3.613   3.911  11.874  2.7629 -0.8326 -1.5104
23448SOL     OW71784   6.090   2.752   2.206 -0.1850 -0.3992  0.4792
23448SOL    HW171785   6.082   2.776   2.113  2.2101 -0.7420  0.1173
23448SOL    HW271786   6.095   2.656   2.206 -0.1604 -0.4006  0.9623
23449SOL     OW71787   3.502   5.236   3.573 -0.4553 -0.0130 -0.0977
23449SOL    HW171788   3.583   5.284   3.589 -0.0496 -0.7460  0.1162
23449SOL    HW271789   3.483   5.192   3.656 -1.5878  0.8841  0.1493
23450SOL     OW71790   4.366   3.741   2.664  0.1402 -0.2893 -0.2597
23450SOL    HW171791   4.388   3.833   2.647  0.1207 -0.3271 -0.4884
23450SOL    HW271792   4.434   3.712   2.725 -0.1837  0.0381  0.2666
23451SOL     OW71793   6.825   5.237  10.569  0.9327 -0.1580  0.2569
23451SOL    HW171794   6.781   5.319  10.591 -0.8840 -1.0210  0.0421
23451SOL    HW271795   6.810   5.227  10.475  0.8086 -0.9094  0.3551
23452SOL     OW71796   4.055   7.604   0.010  0.0380  0.1639  0.1137
23452SOL    HW171797   4.042   7.521   0.054 -2.2595 -0.0161 -0.7995
23452SOL    HW271798   4.020   7.670   0.070 -1.3361  0.1030 -0.5907
23453SOL     OW71799   3.248   0.367   8.951 -0.4085 -0.1515 -0.0451
23453SOL    HW171800   3.333   0.403   8.978 -0.2608  1.1441 -1.9894
23453SOL    HW271801   3.184   0.429   8.987 -0.4551 -0.4150  0.3316
23454SOL     OW71802   2.211   6.490   8.539 -0.2545 -0.3162  0.5697
23454SOL    HW171803   2.152   6.417   8.518 -0.6475  0.1855 -0.1093
23454SOL    HW271804   2.264   6.501   8.461 -1.3354  1.1990 -0.0054
23455SOL     OW71805   3.885   0.227   5.296 -0.0875 -0.8479  0.0399
23455SOL    HW171806   3.925   0.240   5.210 -2.4097  0.2154 -0.9734
23455SOL    HW271807   3.878   0.315   5.333  1.1339 -1.3151  1.4996
23456SOL     OW71808   4.773   3.749   3.897  0.4124 -0.1267  0.1390
23456SOL    HW171809   4.685   3.738   3.933  0.1874 -0.6971 -0.5538
23456SOL    HW271810   4.790   3.843   3.904  0.1528 -0.1352  1.1854
23457SOL     OW71811   7.601   4.803   2.065  0.2054  0.3248  0.1270
23457SOL    HW171812   7.628   4.712   2.069  1.1475  0.5978  0.1497
23457SOL    HW271813   7.516   4.801   2.022  0.5585 -0.4928 -0.5557
23458SOL     OW71814   5.142   7.496   0.363 -0.2096 -0.1924  0.1012
23458SOL    HW171815   5.049   7.479   0.378 -0.6579  2.3596  0.7886
23458SOL    HW271816   5.166   7.559   0.432  2.2307 -1.3133  0.3772
23459SOL     OW71817   0.714   5.117   2.328  0.2235  0.2648  0.2729
23459SOL    HW171818   0.768   5.045   2.359  1.2998  0.2544 -1.5312
23459SOL    HW271819   0.647   5.075   2.274  0.3177  0.5460 -0.0608
23460SOL     OW71820   0.076   5.110   0.635  0.1081 -0.1291 -0.6649
23460SOL    HW171821   0.115   5.037   0.587  0.1867  0.3509 -1.3578
23460SOL    HW271822   0.035   5.164   0.567 -4.6507 -2.1999  0.1783
23461SOL     OW71823   5.922   3.961   2.333 -0.3703  0.1340  0.1231
23461SOL    HW171824   6.004   3.950   2.285 -0.0691 -0.2341  0.7205
23461SOL    HW271825   5.887   3.872   2.340 -2.3530  0.5425 -2.7611
23462SOL     OW71826   5.811   3.318   3.414 -0.2986  0.4281 -0.4084
23462SOL    HW171827   5.814   3.224   3.433 -1.9717  0.0771 -1.7064
23462SOL    HW271828   5.852   3.327   3.328 -2.0707  0.5427 -1.2865
23463SOL     OW71829   5.120   0.111   0.685 -0.2103  1.2836  0.8680
23463SOL    HW171830   5.193   0.150   0.639  0.0479  1.8039  1.7004
23463SOL    HW271831   5.115   0.021   0.652  0.8478  1.2243  0.8569
23464SOL     OW71832   6.199   4.003   6.433 -0.7234 -0.0845 -0.1049
23464SOL    HW171833   6.196   3.910   6.410 -0.7159 -0.6712  2.1052
23464SOL    HW271834   6.207   4.005   6.528 -2.0114  2.2024  0.0327
23465SOL     OW71835   0.848   1.006  10.930 -1.1577 -0.1023  0.1013
23465SOL    HW171836   0.769   0.956  10.910 -1.3851 -0.1222  1.0108
23465SOL    HW271837   0.839   1.029  11.022  0.1543 -0.5670  0.3665
23466SOL     OW71838   7.337   4.027   7.678 -0.1065 -0.1217 -0.6623
23466SOL    HW171839   7.261   3.970   7.671  1.4176 -2.2674 -0.6021
23466SOL    HW271840   7.339   4.076   7.595 -1.0062 -0.7262 -1.0492
23467SOL     OW71841   5.036   0.272   1.690  0.2142 -0.4278 -0.3260
23467SOL    HW171842   5.058   0.191   1.644  0.0848  0.2454 -1.5992
23467SOL    HW271843   5.097   0.337   1.655 -0.5312  0.3201 -0.2537
23468SOL     OW71844   5.889   7.789   9.755 -0.2734 -0.4567 -0.0287
23468SOL    HW171845   5.909   7.749   9.671 -2.7443 -0.7228 -0.5532
23468SOL    HW271846   5.966   7.770   9.809  1.3734 -0.2876 -2.1709
23469SOL     OW71847   1.029   1.077   2.578  0.2458 -0.0452  0.2429
23469SOL    HW171848   1.099   1.062   2.515  0.0440 -1.3320  0.3039
23469SOL    HW271849   1.037   1.170   2.601  0.3437  0.4466 -1.6420
23470SOL     OW71850   2.318   6.300   0.173  0.8088 -0.6250  0.3265
23470SOL    HW171851   2.232   6.259   0.178  1.7308 -2.6182  0.9025
23470SOL    HW271852   2.307   6.385   0.215 -0.6666 -1.2556  1.2805
23471SOL     OW71853   2.615   2.778   8.370  0.0180  0.1574  0.0400
23471SOL    HW171854   2.634   2.825   8.288  2.3557 -1.7826 -0.6255
23471SOL    HW271855   2.542   2.827   8.408  1.8776  4.0143 -0.8069
23472SOL     OW71856   6.841   5.937   0.062 -0.1323 -0.0233  0.3022
23472SOL    HW171857   6.862   5.858   0.112  0.5149 -1.0561 -1.4868
23472SOL    HW271858   6.913   5.946  -0.001 -1.8473 -0.0065 -1.8018
23473SOL     OW71859   1.196   1.816   5.322 -0.1748  0.2202 -0.4459
23473SOL    HW171860   1.232   1.741   5.274 -2.4208 -0.6365 -0.9580
23473SOL    HW271861   1.108   1.828   5.284  0.1858  3.2919 -0.5400
23474SOL     OW71862   4.645   4.750   8.932  0.1512  0.7838 -0.4025
23474SOL    HW171863   4.628   4.692   8.858  0.2117 -1.3080  1.1430
23474SOL    HW271864   4.591   4.827   8.913 -0.7639 -0.1780 -2.0462
23475SOL     OW71865   1.105   0.154   3.510  0.0249  0.5758  0.2419
23475SOL    HW171866   1.111   0.174   3.416 -0.4822  0.5180  0.1960
23475SOL    HW271867   1.190   0.116   3.531  0.4711  1.4228  0.0104
23476SOL     OW71868   4.400   1.631   2.523  0.5254  0.4289 -0.4154
23476SOL    HW171869   4.441   1.684   2.454 -1.2981  1.0359 -1.0930
23476SOL    HW271870   4.344   1.692   2.571 -0.2829 -0.5252 -0.0998
23477SOL     OW71871   0.015   2.529   2.583 -0.3091 -0.1867  0.1868
23477SOL    HW171872   0.090   2.551   2.637 -1.2281  0.5476  1.2036
23477SOL    HW271873  -0.061   2.565   2.630 -1.1542  0.4260 -1.5324
23478SOL     OW71874   5.083   5.966   6.647  0.5376  0.6263  0.0070
23478SOL    HW171875   5.135   6.037   6.686 -0.6553  2.7289 -1.9774
23478SOL    HW271876   5.123   5.951   6.561  0.0033 -0.2148 -0.1035
23479SOL     OW71877   4.861   6.085   8.016  0.9185 -0.2053 -0.3397
23479SOL    HW171878   4.816   6.169   8.019  1.1750  0.0911 -2.7302
23479SOL    HW271879   4.953   6.107   8.000  2.0947 -0.8038  4.1280
23480SOL     OW71880   1.617   6.313   9.714  0.5521 -0.1642  0.5590
23480SOL    HW171881   1.696   6.277   9.756  0.5033  0.1879  0.9598
23480SOL    HW271882   1.546   6.291   9.774  0.1965 -1.2707 -0.2371
23481SOL     OW71883   4.998   4.062   4.213 -0.1619 -0.0839  0.0557
23481SOL    HW171884   4.964   4.151   4.223  1.4910  0.5761  0.1542
23481SOL    HW271885   5.032   4.059   4.124  2.7829  0.5698  1.0116
23482SOL     OW71886   0.205   4.579   3.876 -0.3119  0.1151 -0.2248
23482SOL    HW171887   0.216   4.570   3.782  0.2868 -0.6664 -0.0858
23482SOL    HW271888   0.262   4.652   3.900 -1.3724  1.1089 -0.6238
23483SOL     OW71889   5.958   3.118   6.204  0.3906  0.1528  0.0608
23483SOL    HW171890   5.973   3.197   6.254  0.3461  0.5407 -0.5295
23483SOL    HW271891   5.883   3.139   6.147  1.5972  0.3755 -1.5074
23484SOL     OW71892   0.953   4.690   1.678 -0.4029 -0.7115 -0.0557
23484SOL    HW171893   1.018   4.632   1.715 -1.1032 -1.9986 -0.7757
23484SOL    HW271894   0.963   4.681   1.583 -0.4948  0.3979 -0.1942
23485SOL     OW71895   3.838   0.971   8.696  0.3234 -0.0899 -0.2694
23485SOL    HW171896   3.813   0.937   8.610 -0.5071  0.3834 -0.2248
23485SOL    HW271897   3.795   0.912   8.759  2.2057 -1.4012 -0.1278
23486SOL     OW71898   7.582   3.792  11.454  1.3984 -0.8344  0.3959
23486SOL    HW171899   7.505   3.735  11.455  0.9207 -0.2155 -0.4354
23486SOL    HW271900   7.629   3.770  11.535 -0.0158 -0.7114  1.2760
23487SOL     OW71901   4.872   7.136   8.730 -0.2295 -0.3355 -0.7222
23487SOL    HW171902   4.835   7.196   8.666 -0.2170  0.2150 -0.2250
23487SOL    HW271903   4.799   7.083   8.760 -0.6842  0.8582  0.3805
23488SOL     OW71904   1.099   2.552   3.777 -0.6813  0.1658 -0.4415
23488SOL    HW171905   1.085   2.620   3.711  0.3810 -0.9522 -1.8896
23488SOL    HW271906   1.058   2.473   3.740 -1.2172 -0.1908  0.8470
23489SOL     OW71907   0.479   7.311   1.770 -0.3108  0.2315  0.3766
23489SOL    HW171908   0.464   7.218   1.789 -2.6774  0.6408  0.9275
23489SOL    HW271909   0.463   7.319   1.676  2.2211 -0.2439 -0.1666
23490SOL     OW71910   5.217   2.068   8.970 -0.0733  0.0053  0.1127
23490SOL    HW171911   5.256   2.153   8.948  2.1656 -1.3764 -1.6737
23490SOL    HW271912   5.181   2.080   9.058  0.8674  2.5525  0.2268
23491SOL     OW71913   2.409   6.372   2.156 -0.5316  0.5608 -0.4997
23491SOL    HW171914   2.440   6.461   2.138  0.2164  0.1700 -1.1757
23491SOL    HW271915   2.358   6.349   2.078  0.1901 -0.0090 -0.8069
23492SOL     OW71916   4.591   6.237   8.693  0.0182  0.2999  0.0065
23492SOL    HW171917   4.687   6.232   8.697 -0.0438 -1.0284  0.2793
23492SOL    HW271918   4.573   6.328   8.672  1.3251  0.7418  0.6730
23493SOL     OW71919   2.045   0.766   6.723 -0.0148 -0.5403 -0.1554
23493SOL    HW171920   2.032   0.683   6.678  0.6563  0.1394 -1.6765
23493SOL    HW271921   2.069   0.828   6.654  2.4768  0.2622  1.2706
23494SOL     OW71922   6.144   4.443   0.179  0.2222  0.5822  0.7249
23494SOL    HW171923   6.124   4.398   0.261  0.1626 -0.1143  0.3382
23494SOL    HW271924   6.216   4.393   0.142 -2.1363 -1.5112 -1.4757
23495SOL     OW71925   0.445   0.903   9.614 -0.3234  0.0482 -0.5704
23495SOL    HW171926   0.399   0.975   9.571 -0.7319  0.7410  0.9596
23495SOL    HW271927   0.476   0.940   9.696  0.1855 -1.3134 -0.1191
23496SOL     OW71928   2.629   5.176   9.376 -0.0042 -0.1010 -0.6489
23496SOL    HW171929   2.706   5.141   9.332  0.3412 -0.7978  0.4735
23496SOL    HW271930   2.556   5.128   9.336  0.4653 -2.3161  0.9442
23497SOL     OW71931   0.963   6.780   6.705 -0.3502 -0.3756  0.3038
23497SOL    HW171932   1.005   6.708   6.658  2.4798  2.4533 -1.9068
23497SOL    HW271933   1.014   6.789   6.785  0.2748  0.0666 -0.1345
23498SOL     OW71934   5.379   7.115   9.532 -0.2833  0.0026  0.1373
23498SOL    HW171935   5.349   7.092   9.620 -1.0126 -0.9321 -0.3346
23498SOL    HW271936   5.335   7.052   9.475  1.8633 -0.8330 -0.6891
23499SOL     OW71937   3.368   4.766   0.382  0.1298  0.2144 -0.5529
23499SOL    HW171938   3.372   4.697   0.448 -0.4769 -1.0225 -1.7534
23499SOL    HW271939   3.432   4.741   0.316  1.7658  2.1799  0.1812
23500SOL     OW71940   4.964   0.364  10.074  0.0883 -0.2689 -0.2980
23500SOL    HW171941   4.989   0.456  10.070 -0.0398 -0.2821 -2.2375
23500SOL    HW271942   5.044   0.315  10.054 -0.4402 -0.4336 -2.2875
23501SOL     OW71943   7.146   6.923  10.109  0.4495  0.1017  0.2267
23501SOL    HW171944   7.118   7.005  10.151 -0.5270 -0.5649  0.9435
23501SOL    HW271945   7.070   6.896  10.057  1.4336  0.6041 -1.5605
23502SOL     OW71946   6.192   7.129   5.632 -0.1958  0.8647  0.2792
23502SOL    HW171947   6.257   7.060   5.648 -0.4702  0.6804  0.6199
23502SOL    HW271948   6.177   7.127   5.538 -0.6450  0.0543  0.3605
23503SOL     OW71949   1.350   0.175   2.921  0.0773  0.3637  0.3477
23503SOL    HW171950   1.272   0.166   2.866 -1.0008  0.1329  1.8470
23503SOL    HW271951   1.379   0.085   2.935  0.2787  0.4127  0.2403
23504SOL     OW71952   4.235   5.582   8.607  0.2570  0.4747  0.3758
23504SOL    HW171953   4.266   5.581   8.517 -0.7607 -2.2338 -0.0209
23504SOL    HW271954   4.310   5.554   8.659  0.2656 -0.0085  0.1091
23505SOL     OW71955   2.001   3.315   7.629  0.4690  0.3445 -0.6060
23505SOL    HW171956   1.930   3.362   7.674  1.0199  1.4329 -0.8255
23505SOL    HW271957   2.059   3.385   7.597  1.2740 -0.4980 -1.0340
23506SOL     OW71958   3.757   5.737   9.703  0.3133 -0.6057 -0.4051
23506SOL    HW171959   3.688   5.677   9.730  1.1543 -1.8958 -1.0344
23506SOL    HW271960   3.749   5.811   9.763 -1.0872 -1.0969  0.0485
23507SOL     OW71961   3.048   6.624   8.077 -0.8033  0.2066 -0.4444
23507SOL    HW171962   2.963   6.616   8.034 -0.5598 -0.3374 -0.8161
23507SOL    HW271963   3.026   6.642   8.169 -1.3249 -1.0341 -0.3175
23508SOL     OW71964   3.726   6.588   0.153  0.0047  0.0601 -0.0774
23508SOL    HW171965   3.757   6.537   0.077  0.0818 -0.1999  0.1266
23508SOL    HW271966   3.634   6.605   0.135 -0.5114 -1.6958  0.6801
23509SOL     OW71967   3.062   1.420   9.817 -0.1719 -0.3098 -0.4886
23509SOL    HW171968   3.043   1.365   9.893 -0.2369 -0.0775 -0.3383
23509SOL    HW271969   2.978   1.431   9.774 -0.3467  0.5344  0.0573
23510SOL     OW71970   5.802   5.622  11.425  0.3875  0.6285  0.0226
23510SOL    HW171971   5.805   5.529  11.445 -1.9125  0.3200 -0.7258
23510SOL    HW271972   5.881   5.639  11.374 -1.8605 -2.4037 -5.3144
23511SOL     OW71973   3.350   7.671   5.585  0.2866  0.3219  0.2409
23511SOL    HW171974   3.296   7.647   5.660 -1.2068  0.4036 -0.7583
23511SOL    HW271975   3.331   7.764   5.570  0.9825  0.4452  0.0857
23512SOL     OW71976   3.838   6.294   4.154 -0.5077 -0.5865 -0.0207
23512SOL    HW171977   3.804   6.256   4.073  0.9857 -0.0729 -0.9274
23512SOL    HW271978   3.889   6.224   4.194 -0.3888 -0.5216 -0.0585
23513SOL     OW71979   1.398   7.389   9.521  0.5306 -0.0039 -0.3113
23513SOL    HW171980   1.450   7.376   9.601 -0.6357 -2.0653  0.1817
23513SOL    HW271981   1.312   7.417   9.552 -0.2873 -1.9391 -0.7169
23514SOL     OW71982   3.396   1.138   0.719  0.2426  0.6228 -0.2654
23514SOL    HW171983   3.302   1.129   0.730  0.3922 -0.1391  0.4524
23514SOL    HW271984   3.417   1.086   0.641  0.0084  1.2417 -0.7555
23515SOL     OW71985   6.488   1.428   3.023  0.3500  0.0397  0.1980
23515SOL    HW171986   6.482   1.334   3.038  0.3560  0.1524  0.9453
23515SOL    HW271987   6.402   1.452   2.988  0.3737 -0.2474 -0.0659
23516SOL     OW71988   2.062   3.603   9.812 -0.0069  0.2676 -0.3951
23516SOL    HW171989   2.133   3.631   9.870  1.2208  0.3573 -1.8770
23516SOL    HW271990   2.085   3.514   9.787  0.4867  0.8468 -2.1530
23517SOL     OW71991   1.933   0.626   7.930 -0.0627  0.1492 -0.1012
23517SOL    HW171992   1.871   0.614   7.858 -1.9077 -0.4535  1.5079
23517SOL    HW271993   2.015   0.586   7.898 -1.3831 -1.9208 -1.1328
23518SOL     OW71994   1.826   7.342   2.599 -0.5357  0.1608  0.0559
23518SOL    HW171995   1.901   7.283   2.593 -0.7040 -0.2447  1.6982
23518SOL    HW271996   1.864   7.430   2.596  0.0963 -0.0346  1.5405
23519SOL     OW71997   5.655   2.565   4.330 -0.0248  0.1162  0.2474
23519SOL    HW171998   5.632   2.474   4.348  1.5423 -0.0992  1.3483
23519SOL    HW271999   5.585   2.597   4.274 -0.4924 -1.8234 -0.3305
23520SOL     OW72000   5.870   5.601   7.413  0.1811  0.2140 -0.1264
23520SOL    HW172001   5.781   5.623   7.440 -0.0496  0.3560 -0.9726
23520SOL    HW272002   5.877   5.507   7.429  1.1374  0.7410  3.4185
23521SOL     OW72003   3.568   1.533  10.494  0.4774  0.5968  0.8355
23521SOL    HW172004   3.509   1.563  10.425  1.7281 -1.1114 -1.0815
23521SOL    HW272005   3.653   1.572  10.471  1.0781 -0.6138  0.9329
23522SOL     OW72006   0.764   5.039  11.902  0.5555  0.6638 -0.5488
23522SOL    HW172007   0.716   5.118  11.880  1.6266  1.4223 -0.2461
23522SOL    HW272008   0.848   5.070  11.935  0.6715 -0.5726  0.4061
23523SOL     OW72009   4.691   5.907   0.874  0.2099  0.3573  0.0845
23523SOL    HW172010   4.653   5.923   0.787 -3.2539  0.8288  1.5305
23523SOL    HW272011   4.654   5.976   0.929  0.0396 -1.5612  2.5059
23524SOL     OW72012   5.519   2.595   7.486  0.4204 -0.0566 -0.1860
23524SOL    HW172013   5.530   2.609   7.580  0.4893 -0.7637 -0.0876
23524SOL    HW272014   5.559   2.510   7.469 -0.5854 -0.4427 -0.6685
23525SOL     OW72015   3.422   0.162   7.917 -0.8861 -0.4410 -0.2129
23525SOL    HW172016   3.375   0.245   7.908  0.9299  0.4489 -2.6711
23525SOL    HW272017   3.432   0.150   8.011 -0.4914  2.6163  0.2455
23526SOL     OW72018   2.149   5.229   0.850  0.4828  0.2209 -0.6558
23526SOL    HW172019   2.158   5.195   0.939 -1.8162 -0.8316 -0.7488
23526SOL    HW272020   2.219   5.294   0.842  0.7871  0.3252  1.8994
23527SOL     OW72021   0.618   6.262   1.290 -0.0866  0.3031  0.5270
23527SOL    HW172022   0.582   6.193   1.234 -0.4981  1.1124 -0.2281
23527SOL    HW272023   0.627   6.221   1.376  0.8655 -1.0634 -0.1947
23528SOL     OW72024   0.480   3.570   5.751 -0.4603 -0.2428  0.4549
23528SOL    HW172025   0.533   3.558   5.672 -0.4410  1.3453  0.2067
23528SOL    HW272026   0.541   3.605   5.816 -0.8562  0.0894  0.6514
23529SOL     OW72027   1.324   1.305  11.072  0.4542  0.2864  0.2498
23529SOL    HW172028   1.234   1.304  11.038  0.1895  1.9791  0.7698
23529SOL    HW272029   1.327   1.383  11.128  1.7947 -0.6300  1.5347
23530SOL     OW72030   4.680   6.294   3.379  0.1233  0.3723  0.0922
23530SOL    HW172031   4.635   6.264   3.300  0.2310 -1.1273  0.5718
23530SOL    HW272032   4.663   6.226   3.444  0.4601  1.3274  1.2273
23531SOL     OW72033   1.184   1.172   6.793  0.4846 -0.6366  0.0069
23531SOL    HW172034   1.160   1.101   6.853  0.0887 -1.2792 -0.8788
23531SOL    HW272035   1.242   1.130   6.729 -0.3707 -0.3653 -0.9760
23532SOL     OW72036   7.414   1.362   5.357 -0.2327 -0.0899 -0.1890
23532SOL    HW172037   7.338   1.370   5.414 -0.2270  1.1006 -0.3302
23532SOL    HW272038   7.468   1.293   5.398 -1.1913 -0.6784  0.1098
23533SOL     OW72039   1.360   3.391   3.502  0.6136 -0.5118  0.3050
23533SOL    HW172040   1.375   3.388   3.596 -0.4483  0.0916  0.5105
23533SOL    HW272041   1.368   3.300   3.473  2.2231 -0.5300  0.7487
23534SOL     OW72042   2.339   3.627  11.476 -0.5586 -0.4259 -0.5461
23534SOL    HW172043   2.328   3.718  11.449  1.8311 -0.1193 -0.7018
23534SOL    HW272044   2.271   3.579  11.428 -0.3436  0.9560 -2.3335
23535SOL     OW72045   4.642   6.622   0.637 -0.3531 -0.1938  0.1104
23535SOL    HW172046   4.554   6.660   0.629 -0.0932  0.0759 -1.9298
23535SOL    HW272047   4.645   6.552   0.573  1.0623  0.0980 -0.1918
23536SOL     OW72048   2.345   5.021   9.820 -0.6790  0.2364  0.3496
23536SOL    HW172049   2.356   4.978   9.905 -1.0551  1.0337  0.8060
23536SOL    HW272050   2.383   4.959   9.757 -1.9703 -1.1600  0.8877
23537SOL     OW72051   5.795   5.556  11.103 -0.4099 -0.2276  0.5268
23537SOL    HW172052   5.821   5.646  11.082 -0.3110 -0.0790  1.2433
23537SOL    HW272053   5.760   5.521  11.022 -2.1161  1.0541  0.6496
23538SOL     OW72054   0.626   6.423   7.011  0.3263  0.0263 -0.0967
23538SOL    HW172055   0.562   6.389   6.948  1.0749  1.5579 -1.7850
23538SOL    HW272056   0.706   6.434   6.959  1.1694  0.7044  1.3022
23539SOL     OW72057   4.419   7.111  11.233 -0.4871  0.0351  0.6216
23539SOL    HW172058   4.445   7.114  11.141 -0.9101 -1.6729  0.4062
23539SOL    HW272059   4.459   7.031  11.267  0.4339  1.1006  2.2048
23540SOL     OW72060   1.959   3.475   4.311  0.0590 -0.9044 -0.5042
23540SOL    HW172061   1.934   3.527   4.235 -0.6274 -0.8194 -0.2296
23540SOL    HW272062   1.910   3.514   4.384  0.0561 -1.5041 -0.1772
23541SOL     OW72063   4.879   5.734  10.562 -0.4111  0.0892 -0.0756
23541SOL    HW172064   4.854   5.812  10.513 -1.7908 -0.7700 -0.8123
23541SOL    HW272065   4.929   5.681  10.501 -0.5305 -0.1527  0.0340
23542SOL     OW72066   6.933   1.320  11.297 -0.3002 -0.2345  0.5757
23542SOL    HW172067   6.913   1.256  11.366  0.3656  0.1489  1.1311
23542SOL    HW272068   6.991   1.383  11.339 -0.0634  0.1273 -0.2835
23543SOL     OW72069   5.851   0.653   5.529 -0.3009  0.7317  0.2225
23543SOL    HW172070   5.824   0.734   5.573  1.1464  1.7605 -0.6778
23543SOL    HW272071   5.903   0.683   5.455 -0.4324 -1.0298 -0.6284
23544SOL     OW72072   7.478   4.297   0.614  0.7844 -0.0628 -0.7260
23544SOL    HW172073   7.429   4.315   0.534 -0.5212 -1.2634 -0.2376
23544SOL    HW272074   7.424   4.336   0.683  1.4079  0.1046 -0.3280
23545SOL     OW72075   6.461   5.457   4.939 -0.0598 -0.4035  0.0465
23545SOL    HW172076   6.411   5.537   4.952 -1.5219 -1.2399 -0.2244
23545SOL    HW272077   6.417   5.413   4.866  1.4384 -0.8965 -0.5941
23546SOL     OW72078   4.412   7.030   9.269  0.2582  0.1330  0.0495
23546SOL    HW172079   4.324   7.003   9.241  0.8893 -1.9920 -0.0803
23546SOL    HW272080   4.445   7.082   9.195 -0.3989 -0.1727 -0.4744
23547SOL     OW72081   2.259   4.924   0.113  0.0643 -0.3699 -0.0260
23547SOL    HW172082   2.225   5.014   0.119 -1.7004 -0.8655 -1.7033
23547SOL    HW272083   2.281   4.901   0.203  0.1460  1.5917  0.4930
23548SOL     OW72084   4.518   2.261   5.098  0.7386 -0.0589 -0.0584
23548SOL    HW172085   4.597   2.264   5.043  0.7457 -1.4279 -0.1647
23548SOL    HW272086   4.513   2.170   5.127  0.2255  0.4356  1.4844
23549SOL     OW72087   0.560   3.506  10.391 -0.2160  0.0172  0.1135
23549SOL    HW172088   0.561   3.541  10.480  0.1228  1.7757 -0.5458
23549SOL    HW272089   0.644   3.532  10.354 -0.5849 -0.2040 -0.9076
23550SOL     OW72090   6.632   5.539   9.216  0.0984  0.3218  0.6842
23550SOL    HW172091   6.685   5.581   9.285  0.6929  0.0047  0.4297
23550SOL    HW272092   6.665   5.578   9.135  1.9031 -1.8812  0.2780
23551SOL     OW72093   3.033   5.760   2.166 -0.3455  0.2930 -0.1345
23551SOL    HW172094   2.969   5.721   2.106  0.2656 -0.6123 -0.2107
23551SOL    HW272095   3.117   5.722   2.140  0.0136  0.3501  0.9071
23552SOL     OW72096   2.338   0.433   7.229 -0.3999 -0.2016 -0.8343
23552SOL    HW172097   2.351   0.440   7.323  2.4371  1.1723 -1.2290
23552SOL    HW272098   2.291   0.512   7.204 -2.8118 -1.4049 -0.4448
23553SOL     OW72099   0.935   0.042   6.839 -0.0533  0.0487 -0.0925
23553SOL    HW172100   1.013   0.085   6.874 -0.1476 -0.0343  0.2181
23553SOL    HW272101   0.967  -0.040   6.801 -0.0219 -0.0925  0.2378
23554SOL     OW72102   5.190   1.757   6.448 -0.5029 -0.0412  0.0316
23554SOL    HW172103   5.253   1.827   6.430  0.1010 -0.7475 -0.7176
23554SOL    HW272104   5.219   1.718   6.530 -1.4801  1.2586  1.0310
23555SOL     OW72105   5.132   0.269   2.289  0.2922  0.1391  0.0784
23555SOL    HW172106   5.129   0.256   2.384  2.1555  0.2468  0.1926
23555SOL    HW272107   5.152   0.182   2.254 -1.1986 -0.0747 -0.3117
23556SOL     OW72108   5.957   6.856  11.501 -0.3705  0.5025  0.6581
23556SOL    HW172109   5.899   6.854  11.577 -0.8714  0.5121  0.2794
23556SOL    HW272110   5.938   6.940  11.458 -0.6309  0.1731  0.1103
23557SOL     OW72111   0.637   7.812   9.017  0.4582  0.5038  0.2370
23557SOL    HW172112   0.653   7.726   9.054  0.6087  0.7725  0.8041
23557SOL    HW272113   0.619   7.868   9.092 -0.0211  0.8880 -0.1510
23558SOL     OW72114   7.625   6.900   9.628  0.5806 -0.2905 -0.7996
23558SOL    HW172115   7.675   6.870   9.552 -0.6998  0.8309 -2.1309
23558SOL    HW272116   7.600   6.990   9.607  1.7500  0.7225  1.7695
23559SOL     OW72117   4.989   6.256   6.665  0.5431 -0.3381  0.6150
23559SOL    HW172118   4.912   6.249   6.722  0.1712 -0.2974  0.1286
23559SOL    HW272119   5.064   6.248   6.724  0.1702  0.0359  1.1500
23560SOL     OW72120   6.871   5.635  11.882  0.8771  0.2995 -0.3261
23560SOL    HW172121   6.962   5.645  11.912  0.0525  1.7869  1.9660
23560SOL    HW272122   6.833   5.572  11.944 -0.3479  1.8333  0.5482
23561SOL     OW72123   5.097   6.032   1.517  0.2104  1.1828  0.1029
23561SOL    HW172124   5.098   5.989   1.432  0.4674  0.3395  0.5171
23561SOL    HW272125   5.007   6.025   1.547  0.6213 -0.7988  0.9994
23562SOL     OW72126   2.675   1.495   1.194 -0.0002  0.0361 -0.0944
23562SOL    HW172127   2.755   1.483   1.245  0.7387  1.2627 -0.9211
23562SOL    HW272128   2.692   1.451   1.111  0.0788  0.8245 -0.5071
23563SOL     OW72129   6.622   3.935   7.423 -0.0781 -0.5705  0.3051
23563SOL    HW172130   6.553   3.967   7.481  0.8124 -0.2942  1.2629
23563SOL    HW272131   6.576   3.896   7.349 -1.2236  1.2075  0.0356
23564SOL     OW72132   7.082   5.693   9.473  0.0141 -0.1746 -0.6228
23564SOL    HW172133   7.022   5.697   9.548 -3.2224 -3.7121 -2.6448
23564SOL    HW272134   7.142   5.622   9.494 -0.3957 -0.6468 -1.0291
23565SOL     OW72135   6.319   7.363  12.317  0.7473 -0.2189  0.2607
23565SOL    HW172136   6.391   7.331  12.262 -0.9006 -3.0757 -0.4055
23565SOL    HW272137   6.241   7.354  12.264 -0.3235  1.8610  1.3359
23566SOL     OW72138   1.990   5.155   0.016 -0.5135 -0.2163 -0.4933
23566SOL    HW172139   1.993   5.220  -0.054  0.1126 -0.6986 -0.9247
23566SOL    HW272140   2.045   5.192   0.086 -1.0029  0.1861 -0.3096
23567SOL     OW72141   5.881   6.143   4.997 -0.2245 -0.2324  0.6535
23567SOL    HW172142   5.879   6.085   5.073  1.7279 -0.7994  0.3301
23567SOL    HW272143   5.874   6.085   4.922 -0.5128  0.1792  0.3540
23568SOL     OW72144   6.123   6.908   9.791 -0.3183 -0.1516 -0.5938
23568SOL    HW172145   6.202   6.904   9.846 -0.2389  3.1576 -0.2509
23568SOL    HW272146   6.056   6.861   9.841  0.2502  1.1082  1.4829
23569SOL     OW72147   6.461   7.260   8.431 -0.4807 -0.1196 -0.3919
23569SOL    HW172148   6.513   7.318   8.487 -0.0609  1.6885 -2.5586
23569SOL    HW272149   6.525   7.209   8.382 -0.8218 -0.4125 -0.5419
23570SOL     OW72150   7.124   6.320  12.099 -0.0667 -0.8931 -0.0821
23570SOL    HW172151   7.040   6.326  12.053 -0.5563 -1.4787  0.6966
23570SOL    HW272152   7.114   6.245  12.157  1.3806 -1.6283 -0.7174
23571SOL     OW72153   7.424   0.662   1.119 -0.3924  0.4498  0.5660
23571SOL    HW172154   7.464   0.746   1.093 -1.0577  1.3018  2.1446
23571SOL    HW272155   7.375   0.634   1.042  0.4076  1.1588 -0.2199
23572SOL     OW72156   1.217   5.729   9.477 -0.5397 -0.2835 -0.3583
23572SOL    HW172157   1.204   5.811   9.525 -0.2941 -0.4332 -0.0389
23572SOL    HW272158   1.303   5.739   9.436 -0.5786 -0.3165 -0.4482
23573SOL     OW72159   7.582   7.372   1.097 -0.3042  0.4200  0.5566
23573SOL    HW172160   7.591   7.452   1.045 -1.3104  0.1619 -0.0544
23573SOL    HW272161   7.598   7.301   1.035 -1.0062  0.1223  0.7046
23574SOL     OW72162   1.136   2.280   9.758 -0.5301  0.2081  0.0749
23574SOL    HW172163   1.169   2.360   9.716 -1.2191  1.5249  1.9081
23574SOL    HW272164   1.122   2.305   9.849  0.8048 -2.4969  1.1217
23575SOL     OW72165   3.556   1.743   3.137 -0.6138 -0.2206 -0.0492
23575SOL    HW172166   3.465   1.767   3.155 -0.4381  2.6319 -2.2725
23575SOL    HW272167   3.555   1.712   3.046  0.5960 -0.4224 -0.0136
23576SOL     OW72168   7.386   3.150  10.275  0.7492 -0.4345 -0.3801
23576SOL    HW172169   7.418   3.061  10.291  1.4361 -0.2341 -0.6257
23576SOL    HW272170   7.431   3.178  10.196 -0.7760 -0.5063 -1.3165
23577SOL     OW72171   3.981   7.416  10.433  0.5245  0.4150 -0.1139
23577SOL    HW172172   4.045   7.365  10.382  0.5683 -1.8002  2.0017
23577SOL    HW272173   4.025   7.501  10.447  1.3654  0.3314 -1.8979
23578SOL     OW72174   5.190   5.118  12.096  0.0036  0.3548 -0.3739
23578SOL    HW172175   5.167   5.122  12.004  0.4766 -0.5289 -0.5417
23578SOL    HW272176   5.111   5.087  12.140 -0.4427  1.4371 -0.3746
23579SOL     OW72177   4.985   6.662  10.590  0.2732  0.4211  0.5545
23579SOL    HW172178   5.000   6.756  10.598  0.4611  0.5264 -0.7846
23579SOL    HW272179   5.066   6.622  10.620  0.6891  0.7383 -0.1304
23580SOL     OW72180   4.305   6.143  10.843  0.2516 -0.2239 -0.3744
23580SOL    HW172181   4.279   6.118  10.754  1.3891  2.6794 -1.6599
23580SOL    HW272182   4.400   6.131  10.843  0.1640 -0.9982  0.7663
23581SOL     OW72183   2.154   6.327   9.953  0.3170 -0.7821  0.5910
23581SOL    HW172184   2.105   6.281  10.021  0.3324 -0.9596  0.4805
23581SOL    HW272185   2.098   6.323   9.876 -0.9428  1.7258  1.2627
23582SOL     OW72186   6.576   4.138  10.669 -0.2915 -0.1524 -0.2615
23582SOL    HW172187   6.583   4.207  10.734 -1.0956  1.5837 -1.9047
23582SOL    HW272188   6.484   4.140  10.642 -1.0890 -3.7642  1.5144
23583SOL     OW72189   1.523   6.410   6.969 -0.1121 -0.6746 -0.2855
23583SOL    HW172190   1.570   6.357   6.904 -2.0417 -1.3681 -1.1781
23583SOL    HW272191   1.450   6.356   6.997 -1.0197  0.7697  0.2732
23584SOL     OW72192   0.021   0.923  11.353 -0.0383  0.2959  0.0996
23584SOL    HW172193   0.114   0.902  11.344 -0.0441  1.0413 -2.3432
23584SOL    HW272194   0.002   0.909  11.446  2.4897  0.1063  0.6472
23585SOL     OW72195   5.378   1.251   5.172  0.0479  0.3537 -0.0093
23585SOL    HW172196   5.405   1.320   5.111 -1.5147  0.2979 -0.8105
23585SOL    HW272197   5.461   1.214   5.203  0.9171  0.3472 -2.1431
23586SOL     OW72198   1.196   0.831   6.099 -0.2145 -0.1480  0.4774
23586SOL    HW172199   1.253   0.772   6.050  0.1610  0.3500  0.3090
23586SOL    HW272200   1.135   0.773   6.145 -1.4897 -0.6059 -1.6521
23587SOL     OW72201   5.079   6.537   1.764  0.1078  0.0648 -0.5659
23587SOL    HW172202   4.999   6.537   1.712 -0.3536 -1.0232  0.1096
23587SOL    HW272203   5.077   6.454   1.811  0.7327  0.8148  0.8431
23588SOL     OW72204   0.087   6.560   8.913 -0.0772  0.5465  0.9653
23588SOL    HW172205   0.053   6.476   8.882  2.6851 -0.1689 -0.4826
23588SOL    HW272206   0.025   6.624   8.879 -0.5540 -0.7109 -0.6907
23589SOL     OW72207   3.829   3.686   4.614  0.3061 -0.3385 -0.2760
23589SOL    HW172208   3.800   3.698   4.524  3.0317  1.4451 -1.0491
23589SOL    HW272209   3.863   3.772   4.641  1.9639 -1.4391  1.4861
23590SOL     OW72210   7.865   2.849   9.347  0.1998  0.5132  0.4568
23590SOL    HW172211   7.859   2.754   9.360  1.2336  0.4786  0.8356
23590SOL    HW272212   7.850   2.886   9.433  1.7822  0.5674  0.7449
23591SOL     OW72213   2.354   1.949   4.260 -0.1423  0.0276 -0.6435
23591SOL    HW172214   2.274   1.909   4.295 -0.2318  0.4856 -0.3193
23591SOL    HW272215   2.326   1.992   4.179 -0.5249  1.4048  0.2012
23592SOL     OW72216   0.816   1.251   7.605  0.2581 -0.2021 -0.1179
23592SOL    HW172217   0.855   1.175   7.647  1.3303 -0.6259 -1.7497
23592SOL    HW272218   0.725   1.253   7.635  0.8310 -0.7323  1.7595
23593SOL     OW72219   5.667   0.268   0.593  0.1406  0.2056  0.4648
23593SOL    HW172220   5.663   0.182   0.551  1.3459 -0.2386  1.1993
23593SOL    HW272221   5.600   0.320   0.549  1.1696 -0.3008 -1.8282
23594SOL     OW72222   1.635   7.290   3.289 -0.5260 -0.5551 -0.5594
23594SOL    HW172223   1.584   7.369   3.271  1.7131  1.1192 -0.0050
23594SOL    HW272224   1.642   7.286   3.384 -1.2938 -1.9344 -0.5291
23595SOL     OW72225   3.678   1.188  10.796 -1.0777  0.3216  0.0443
23595SOL    HW172226   3.753   1.205  10.854 -1.2477 -0.9776  0.6805
23595SOL    HW272227   3.708   1.217  10.709  0.7473 -1.4804 -0.0188
23596SOL     OW72228   0.461   0.831   8.359 -0.3579  0.6298  0.0016
23596SOL    HW172229   0.555   0.847   8.354 -0.4488  0.8602 -1.6416
23596SOL    HW272230   0.443   0.767   8.290 -1.5417  1.4074 -0.4693
23597SOL     OW72231   2.154   1.537   7.905 -0.1910 -0.3952 -0.3640
23597SOL    HW172232   2.182   1.462   7.958 -0.5613 -0.5460 -0.3826
23597SOL    HW272233   2.188   1.613   7.952  2.6576 -0.6490 -1.7727
23598SOL     OW72234   5.034   7.048   1.308  0.5506 -0.1714  0.3394
23598SOL    HW172235   5.051   7.142   1.318  0.4419  0.1295 -1.8082
23598SOL    HW272236   4.939   7.042   1.296  0.8333 -0.1617 -2.4807
23599SOL     OW72237   0.620   3.485   9.609  0.7045 -0.5122 -0.5176
23599SOL    HW172238   0.539   3.441   9.632  1.3337 -2.4530 -1.7670
23599SOL    HW272239   0.636   3.546   9.682 -0.7599 -1.5972  0.7795
23600SOL     OW72240   5.055   7.142   5.854 -0.1070 -0.0338  0.2541
23600SOL    HW172241   5.037   7.178   5.941 -1.4815  1.0714 -0.4478
23600SOL    HW272242   5.142   7.174   5.832  0.1733 -0.1728  1.1521
23601SOL     OW72243   5.661   6.713   3.136  0.2021  0.6762  0.3725
23601SOL    HW172244   5.674   6.708   3.041  0.3235  0.6581  0.3897
23601SOL    HW272245   5.732   6.661   3.173 -0.9579 -0.9653  0.4124
23602SOL     OW72246   2.276   5.125   5.902  0.1411 -0.2284  0.0594
23602SOL    HW172247   2.239   5.075   5.830 -0.3527  1.7670 -1.1648
23602SOL    HW272248   2.207   5.126   5.969  0.2118 -1.2628  0.1517
23603SOL     OW72249   7.266   2.955   8.580  0.3569  0.4469 -0.1511
23603SOL    HW172250   7.179   2.926   8.552 -0.5815  1.0676  1.9336
23603SOL    HW272251   7.260   3.051   8.580  1.4773  0.5381 -1.1932
23604SOL     OW72252   4.071   5.312   1.867  0.1888 -0.2328 -0.0252
23604SOL    HW172253   4.051   5.276   1.781 -0.1849 -1.6996  0.6359
23604SOL    HW272254   4.156   5.354   1.857  1.3348 -2.5579 -0.5391
23605SOL     OW72255   1.675   3.219   3.267  0.0835 -0.4204 -0.5168
23605SOL    HW172256   1.736   3.172   3.209  1.4586  2.6628 -1.8139
23605SOL    HW272257   1.696   3.186   3.355  0.0385 -3.0615 -1.4004
23606SOL     OW72258   0.821   4.255   1.633 -0.4736 -0.1380 -0.3771
23606SOL    HW172259   0.849   4.229   1.545  1.2482 -1.4309  0.5025
23606SOL    HW272260   0.786   4.175   1.671 -1.4188  0.4701  0.0639
23607SOL     OW72261   3.258   6.179   5.058  0.6000 -0.1840  0.0619
23607SOL    HW172262   3.179   6.130   5.082 -0.4998  1.7869  0.6094
23607SOL    HW272263   3.286   6.221   5.139 -0.1964  2.4256 -0.9200
23608SOL     OW72264   0.353   7.021   1.139 -0.1873  0.3215  0.8532
23608SOL    HW172265   0.398   7.066   1.210 -0.7566  3.4203 -0.5868
23608SOL    HW272266   0.410   6.947   1.117  1.5362  1.1063  2.4473
23609SOL     OW72267   6.144   6.469   7.937 -0.2132  0.6081 -0.4885
23609SOL    HW172268   6.178   6.381   7.922  1.0063  0.9378  0.1715
23609SOL    HW272269   6.184   6.523   7.869  2.1962  1.3535  1.3770
23610SOL     OW72270   6.913   7.411  10.873 -0.2477  0.3449  0.0454
23610SOL    HW172271   7.007   7.422  10.882  0.0983 -2.4387  0.7507
23610SOL    HW272272   6.900   7.382  10.783 -0.1947 -0.8313  0.3951
23611SOL     OW72273   6.631   1.483   7.160 -0.4817  0.2054 -0.5536
23611SOL    HW172274   6.602   1.537   7.234 -1.1763 -0.8915  0.0111
23611SOL    HW272275   6.701   1.534   7.119 -0.6526  1.2162  0.3569
23612SOL     OW72276   7.018   3.970  11.463  0.2960  0.1569 -0.4942
23612SOL    HW172277   6.928   3.995  11.484 -0.4047 -1.5968 -1.1968
23612SOL    HW272278   7.071   4.009  11.532 -0.9874  1.2953 -0.1144
23613SOL     OW72279   4.470   5.974   9.262 -0.6343  0.7580 -0.0475
23613SOL    HW172280   4.434   6.061   9.246 -0.6014  0.5060 -1.7521
23613SOL    HW272281   4.396   5.914   9.249 -0.2822  0.4357 -0.6637
23614SOL     OW72282   1.147   3.699   4.052 -0.1113  0.3590 -0.6101
23614SOL    HW172283   1.237   3.668   4.062 -0.6290 -1.1059 -0.2174
23614SOL    HW272284   1.130   3.692   3.958 -0.6697 -2.0824 -0.4143
23615SOL     OW72285   1.412   0.503  11.574  0.5593 -0.4182 -0.2300
23615SOL    HW172286   1.320   0.512  11.598  0.4904 -0.9812 -0.2481
23615SOL    HW272287   1.442   0.592  11.555 -0.1375 -0.2903 -0.7737
23616SOL     OW72288   5.364   5.129   4.396 -0.0550 -0.2613  0.0131
23616SOL    HW172289   5.306   5.188   4.348  0.2047 -1.2394 -1.6009
23616SOL    HW272290   5.405   5.075   4.328  1.9535 -0.3179  1.1779
23617SOL     OW72291   0.479   7.083  10.655  0.0329 -0.1451 -0.0957
23617SOL    HW172292   0.457   7.164  10.609 -1.9819 -1.0592 -0.8331
23617SOL    HW272293   0.528   7.031  10.591  0.4882  0.0786  0.0635
23618SOL     OW72294   4.515   5.731   2.809  0.4755 -0.3417  0.3427
23618SOL    HW172295   4.594   5.781   2.828 -0.7784  1.2279  1.6764
23618SOL    HW272296   4.448   5.797   2.788 -0.3822 -1.6481 -1.3292
23619SOL     OW72297   0.810   7.661  10.079 -0.0118  0.1868  0.1920
23619SOL    HW172298   0.825   7.750  10.047 -0.2291  0.2703  0.3210
23619SOL    HW272299   0.897   7.620  10.078 -0.0601  0.0782 -0.8491
23620SOL     OW72300   0.874   0.025   3.584 -0.2463 -0.1346  0.1995
23620SOL    HW172301   0.950   0.079   3.560  0.2221 -0.4234  1.0122
23620SOL    HW272302   0.894  -0.007   3.672  0.4593 -3.3657 -1.0261
23621SOL     OW72303   5.660   3.902   1.575 -0.5394 -0.2914  0.2651
23621SOL    HW172304   5.733   3.952   1.537 -1.0592 -0.5803 -1.1756
23621SOL    HW272305   5.590   3.965   1.585 -0.1685 -0.0476  1.5093
23622SOL     OW72306   0.086   5.367   2.935 -0.1231 -0.4207  0.1238
23622SOL    HW172307   0.120   5.285   2.972  0.6398 -0.3324 -0.3669
23622SOL    HW272308  -0.004   5.346   2.909  0.2160 -1.2467 -0.4304
23623SOL     OW72309   3.644   7.253  10.790 -0.8788  0.4399  0.2588
23623SOL    HW172310   3.577   7.190  10.763 -0.2189  0.1833 -0.8388
23623SOL    HW272311   3.705   7.256  10.717  0.4067  0.5611  1.3014
23624SOL     OW72312   6.776   0.027   8.199 -0.4698  0.6093 -0.2493
23624SOL    HW172313   6.827  -0.052   8.178 -1.0980  0.3268 -0.7232
23624SOL    HW272314   6.695   0.017   8.149 -1.8439  0.1196  1.9495
23625SOL     OW72315   7.631   3.378   8.397  0.0568 -0.5880 -0.0092
23625SOL    HW172316   7.691   3.363   8.470  0.0459  1.1408  0.3771
23625SOL    HW272317   7.613   3.472   8.398 -1.9155 -0.9048 -0.7183
23626SOL     OW72318   3.927   1.385   9.933  0.0749 -0.3210 -0.0233
23626SOL    HW172319   4.010   1.368   9.889  0.6991  0.1447  0.9291
23626SOL    HW272320   3.865   1.403   9.863  1.1054  0.7041 -0.7083
23627SOL     OW72321   7.369   7.331   9.340  0.0153 -0.3530 -0.0188
23627SOL    HW172322   7.322   7.392   9.395  0.7930  0.4681 -0.2422
23627SOL    HW272323   7.459   7.333   9.372  0.5107  0.2101 -1.3447
23628SOL     OW72324   3.742   2.664   5.285 -0.3966 -0.4026  0.2706
23628SOL    HW172325   3.686   2.589   5.267  0.0901 -0.5299 -0.8172
23628SOL    HW272326   3.764   2.699   5.198 -1.0157  1.2963  0.7531
23629SOL     OW72327   4.052   6.831  10.429  0.3458  0.6361 -0.0297
23629SOL    HW172328   4.008   6.881  10.498 -2.2452  2.8364 -2.9860
23629SOL    HW272329   4.145   6.852  10.439  0.3416 -0.3777  3.5668
23630SOL     OW72330   3.739   6.604   8.916  1.1862  0.1513 -0.4007
23630SOL    HW172331   3.678   6.606   8.843 -2.4695  1.6637  2.3910
23630SOL    HW272332   3.795   6.681   8.902 -1.2735  2.0868 -0.3542
23631SOL     OW72333   7.095   0.272   0.607 -0.3128 -0.4711  0.0287
23631SOL    HW172334   7.124   0.184   0.582 -1.4895 -0.9789  0.3690
23631SOL    HW272335   7.153   0.297   0.678 -1.3156 -1.9024  1.4201
23632SOL     OW72336   6.032   2.675   4.728 -0.4916  0.3938 -0.1387
23632SOL    HW172337   6.035   2.612   4.656  0.0304 -0.6309  0.7492
23632SOL    HW272338   6.029   2.621   4.807  2.3421  1.4095  0.7910
23633SOL     OW72339   6.580   7.781  10.921 -0.1610 -0.2757  0.5688
23633SOL    HW172340   6.636   7.722  10.870  0.2902  0.3103  0.3612
23633SOL    HW272341   6.521   7.820  10.856 -1.3607 -1.4717  0.9031
23634SOL     OW72342   5.468   3.270   7.620 -0.5343  0.3447  0.1984
23634SOL    HW172343   5.526   3.340   7.589  1.8718 -1.3120  0.6822
23634SOL    HW272344   5.392   3.275   7.562  0.6298  1.8283 -1.3293
23635SOL     OW72345   1.577   3.126  10.716 -0.4641 -0.7641  0.0770
23635SOL    HW172346   1.662   3.089  10.693  0.4103  1.2099 -0.0389
23635SOL    HW272347   1.552   3.080  10.796  0.2606 -2.0195 -0.3864
23636SOL     OW72348   7.539   0.336   5.188  0.4371 -0.2932 -0.6290
23636SOL    HW172349   7.582   0.337   5.273  2.2643 -0.7940 -1.4918
23636SOL    HW272350   7.469   0.271   5.196  0.2255  0.0708  0.6281
23637SOL     OW72351   3.803   3.452   0.690 -0.2227  0.4694  0.3912
23637SOL    HW172352   3.710   3.431   0.685 -0.2152 -0.1204  2.0942
23637SOL    HW272353   3.812   3.502   0.771  1.2850 -1.8087  1.7567
23638SOL     OW72354   7.046   1.886   0.244 -0.4285  0.2654  0.0491
23638SOL    HW172355   7.098   1.806   0.249 -1.6951 -0.5314  1.4308
23638SOL    HW272356   6.989   1.873   0.168  1.0079  0.9245 -1.1651
23639SOL     OW72357   0.978   7.388   9.333 -0.3330  0.1531  0.2201
23639SOL    HW172358   0.972   7.293   9.317  0.8382 -0.0171  0.7109
23639SOL    HW272359   0.978   7.396   9.428  0.5653  0.5660  0.1905
23640SOL     OW72360   1.850   6.018   8.522 -0.3278 -0.1498  0.6366
23640SOL    HW172361   1.943   6.001   8.503 -0.4282  1.1066 -1.3739
23640SOL    HW272362   1.804   5.942   8.488 -0.1130 -0.2327  0.5303
23641SOL     OW72363   6.877   7.137   4.508 -0.5378 -0.5686 -0.1723
23641SOL    HW172364   6.844   7.071   4.447  0.4518 -0.2224 -1.1335
23641SOL    HW272365   6.895   7.213   4.453  2.1141 -0.8346  0.1847
23642SOL     OW72366   1.943   7.922   6.227 -0.2930 -0.4515 -0.2918
23642SOL    HW172367   1.868   7.934   6.169  0.3190 -1.5109 -1.3550
23642SOL    HW272368   1.956   7.827   6.230  1.2886 -0.2619 -0.5088
23643SOL     OW72369   4.095   6.790   0.872  0.3301  0.4715  0.1359
23643SOL    HW172370   4.114   6.765   0.782 -0.0184  0.0957  0.1623
23643SOL    HW272371   4.028   6.728   0.900  0.7333  0.3208  0.7846
23644SOL     OW72372   5.674   1.678   0.987 -0.2382  0.3886 -0.0881
23644SOL    HW172373   5.729   1.756   0.978  1.0315 -0.3964  0.5774
23644SOL    HW272374   5.612   1.684   0.914  1.6040  0.6168 -1.7062
23645SOL     OW72375   6.955   4.809   7.406  0.1280  0.7460  0.8265
23645SOL    HW172376   6.980   4.720   7.429 -0.7269  0.3440  0.2367
23645SOL    HW272377   6.900   4.838   7.479 -3.4853 -0.9107 -0.9603
23646SOL     OW72378   0.305   7.343   6.208  0.2497 -0.1984 -0.0046
23646SOL    HW172379   0.246   7.268   6.213 -0.0044  0.0117  0.2090
23646SOL    HW272380   0.323   7.354   6.115 -0.8760  0.3777 -0.1620
23647SOL     OW72381   6.893   1.274   9.855 -0.2136 -0.3299  0.3899
23647SOL    HW172382   6.803   1.268   9.823 -0.4467  1.3469  0.6379
23647SOL    HW272383   6.933   1.344   9.803  1.0501 -1.2342  0.0923
23648SOL     OW72384   4.740   5.042   9.613  0.3015  0.6203  0.0340
23648SOL    HW172385   4.691   4.990   9.677  1.2670  1.5169  1.5699
23648SOL    HW272386   4.799   4.979   9.571 -1.1448 -0.1988 -0.8331
23649SOL     OW72387   4.934   3.257   0.540  0.0945  0.5328 -0.1819
23649SOL    HW172388   4.894   3.317   0.477 -0.5692  1.1939  0.8360
23649SOL    HW272389   5.015   3.229   0.498 -0.9427 -0.0802 -1.9011
23650SOL     OW72390   1.624   7.871   8.574 -0.2235 -0.4336  0.4750
23650SOL    HW172391   1.659   7.915   8.496 -2.3760  0.1928 -0.2146
23650SOL    HW272392   1.605   7.782   8.545 -3.8821  0.5643 -0.8020
23651SOL     OW72393   3.768   1.607   9.416 -0.1216  0.4738  0.2807
23651SOL    HW172394   3.862   1.593   9.419 -0.3682 -1.9876 -1.0245
23651SOL    HW272395   3.737   1.547   9.348 -2.7558  0.4176  1.4235
23652SOL     OW72396   1.623   7.120   8.368 -0.3258  0.0103 -0.0738
23652SOL    HW172397   1.718   7.109   8.381 -0.4392  0.6711  1.4974
23652SOL    HW272398   1.583   7.073   8.441 -1.1790  0.5261 -0.2004
23653SOL     OW72399   0.025   5.169   8.584  0.0330  0.2939  0.3211
23653SOL    HW172400   0.051   5.172   8.492 -2.0807  0.2517 -0.3435
23653SOL    HW272401   0.053   5.253   8.620  2.6055 -0.4280  0.2187
23654SOL     OW72402   2.931   5.744   8.191 -0.8769  0.2141  0.0229
23654SOL    HW172403   2.959   5.700   8.111  0.4001  0.1284  0.4994
23654SOL    HW272404   2.873   5.681   8.234 -0.1713 -0.4493  0.0195
23655SOL     OW72405   6.244   0.074  11.140  0.3551 -0.4323  0.1869
23655SOL    HW172406   6.158   0.090  11.101  0.6350  1.7978  0.3684
23655SOL    HW272407   6.305   0.083  11.067  0.4477 -2.5697 -0.0560
23656SOL     OW72408   2.690   0.228   3.902 -0.1463  0.0639  0.2416
23656SOL    HW172409   2.606   0.264   3.933  0.4213  2.4446 -0.7433
23656SOL    HW272410   2.721   0.174   3.975 -1.9144  0.1541  1.1330
23657SOL     OW72411   0.211   2.360  11.534  0.0474 -0.2127 -0.2633
23657SOL    HW172412   0.206   2.268  11.559  1.0443 -0.6546 -1.5833
23657SOL    HW272413   0.166   2.407  11.605  0.6317 -1.5872  1.0632
23658SOL     OW72414   2.271   3.258   1.518  0.2229  0.1777 -0.0336
23658SOL    HW172415   2.355   3.218   1.542 -0.3993 -1.2593 -0.1444
23658SOL    HW272416   2.293   3.320   1.449  0.9947 -1.3551 -1.2103
23659SOL     OW72417   6.604   1.081   7.590  0.1831 -0.0372 -0.1419
23659SOL    HW172418   6.639   1.114   7.673  0.4363 -0.4821 -0.0662
23659SOL    HW272419   6.628   1.148   7.526  2.3286 -0.8836 -0.3224
23660SOL     OW72420   7.115   2.317   9.162  0.1642 -0.1090 -0.7106
23660SOL    HW172421   7.202   2.307   9.122 -0.2293  0.1237 -1.6739
23660SOL    HW272422   7.063   2.358   9.093 -0.8495 -0.7351 -0.3300
23661SOL     OW72423   4.865   4.153  11.643  0.1195 -0.2734  0.1099
23661SOL    HW172424   4.813   4.136  11.722  0.8652  0.5237  0.7991
23661SOL    HW272425   4.924   4.079  11.636  1.3601  0.5317  1.4261
23662SOL     OW72426   4.352   2.752   8.269 -0.1503  0.1865 -0.1396
23662SOL    HW172427   4.434   2.799   8.258 -0.0001  0.0434  0.3879
23662SOL    HW272428   4.294   2.790   8.202 -0.4236  1.9748  1.0552
23663SOL     OW72429   0.684   6.614  11.594  0.2330 -0.2865  0.1983
23663SOL    HW172430   0.594   6.618  11.561  0.5170 -1.9352 -0.8655
23663SOL    HW272431   0.693   6.525  11.628  0.7410  0.5903  2.5502
23664SOL     OW72432   7.740   4.754  10.710  0.3171 -0.2975  0.3594
23664SOL    HW172433   7.694   4.764  10.626 -1.4133  2.0085  1.4549
23664SOL    HW272434   7.832   4.750  10.686 -0.1673 -0.7446 -1.7051
23665SOL     OW72435   6.563   2.349  10.966  0.8668  0.5975  0.6680
23665SOL    HW172436   6.503   2.371  11.037 -1.2311  0.1512 -0.8557
23665SOL    HW272437   6.625   2.421  10.963 -1.3351  2.5999  0.5116
23666SOL     OW72438   5.270   7.926   1.817 -0.7606 -0.4968 -0.7835
23666SOL    HW172439   5.363   7.903   1.822 -0.7453 -0.8525 -2.3506
23666SOL    HW272440   5.225   7.842   1.824 -0.9167 -0.4365 -1.0530
23667SOL     OW72441   6.077   4.001   4.451 -0.2641 -0.2575  0.0919
23667SOL    HW172442   6.147   4.040   4.503 -0.3841  0.7194 -0.4460
23667SOL    HW272443   6.006   3.986   4.513  0.2515 -0.8245  0.5522
23668SOL     OW72444   6.742   4.700   4.670 -0.0186 -0.4377  0.4952
23668SOL    HW172445   6.835   4.685   4.685 -0.2278 -1.0801  1.2082
23668SOL    HW272446   6.713   4.750   4.746 -0.3649 -0.6756  0.5203
23669SOL     OW72447   1.701   0.063   4.236  0.4347  0.3278  0.3942
23669SOL    HW172448   1.763   0.002   4.196  0.7318  1.1539 -0.4373
23669SOL    HW272449   1.753   0.109   4.303  0.3561  0.0626  0.6386
23670SOL     OW72450   6.948   1.039   1.858  0.0528 -0.2208  0.3187
23670SOL    HW172451   6.875   1.033   1.919 -0.3435  0.2289 -0.1027
23670SOL    HW272452   7.026   1.041   1.913 -0.3058  0.3946  0.8136
23671SOL     OW72453   1.226   0.976  11.506 -0.1864  0.1742 -0.2956
23671SOL    HW172454   1.180   0.933  11.578  0.4136  1.3762  0.8520
23671SOL    HW272455   1.167   1.046  11.479  0.3986  0.9163  0.3214
23672SOL     OW72456   2.018   3.115   9.125  0.2868  0.1972 -0.2463
23672SOL    HW172457   2.047   3.131   9.215 -0.8118 -1.7237  0.5066
23672SOL    HW272458   1.949   3.180   9.110 -1.0071 -0.7995  1.1108
23673SOL     OW72459   4.509   3.453   0.109 -0.5738  0.1555  0.1645
23673SOL    HW172460   4.509   3.414   0.196 -0.3348 -0.4660 -0.1087
23673SOL    HW272461   4.563   3.532   0.119  1.4662 -1.1584  0.0621
23674SOL     OW72462   6.176   0.982   3.947  0.1960 -0.0191 -0.4018
23674SOL    HW172463   6.216   0.968   3.861 -0.4485 -0.9417 -0.5661
23674SOL    HW272464   6.090   1.020   3.927 -0.8768 -2.2113 -0.3433
23675SOL     OW72465   5.162   0.559   7.984 -0.2342 -0.2892  0.4448
23675SOL    HW172466   5.148   0.505   7.907  1.5343  0.3237 -0.3686
23675SOL    HW272467   5.199   0.499   8.049 -1.1847 -0.6818  0.6412
23676SOL     OW72468   7.743   6.733   8.653  0.3244  0.4316  0.3282
23676SOL    HW172469   7.719   6.747   8.561 -2.0250 -0.5862  0.7135
23676SOL    HW272470   7.659   6.733   8.700  1.5535  3.4156  2.9043
23677SOL     OW72471   0.059   5.960  11.270 -0.7015 -0.9895 -0.2281
23677SOL    HW172472   0.081   6.015  11.344 -0.6225 -0.1357 -0.8711
23677SOL    HW272473   0.027   6.021  11.203 -0.4423 -1.7024 -1.0208
23678SOL     OW72474   7.752   3.753   8.888 -0.4841  0.6660  0.2040
23678SOL    HW172475   7.725   3.673   8.933  0.9134  0.0772  0.0346
23678SOL    HW272476   7.675   3.780   8.838 -0.8472 -0.7716 -0.0297
23679SOL     OW72477   4.969   5.393   0.798 -0.1520 -0.6846 -0.0497
23679SOL    HW172478   4.920   5.363   0.721 -1.7612  0.3647  0.5130
23679SOL    HW272479   4.902   5.431   0.856  1.1187 -0.7745  1.5439
23680SOL     OW72480   1.113   5.520   1.797  0.2832 -0.2830 -0.7268
23680SOL    HW172481   1.020   5.529   1.815  0.4894 -0.6831  0.7340
23680SOL    HW272482   1.131   5.427   1.812  0.9153 -0.1987 -0.9419
23681SOL     OW72483   4.585   1.774   4.002  0.5873 -0.1745 -0.1529
23681SOL    HW172484   4.540   1.691   3.987  1.9830 -0.9243 -0.4044
23681SOL    HW272485   4.599   1.810   3.915  0.8484 -0.1659 -0.1088
23682SOL     OW72486   1.418   2.568   6.385  0.1418 -0.2578 -0.5720
23682SOL    HW172487   1.347   2.600   6.330 -1.0347  0.3086  1.1927
23682SOL    HW272488   1.489   2.632   6.372 -0.7479  0.8469 -0.1210
23683SOL     OW72489   7.098   0.824   1.446 -0.4260  1.1199 -0.4738
23683SOL    HW172490   7.174   0.771   1.421 -1.5542  0.2011 -2.1791
23683SOL    HW272491   7.106   0.903   1.393 -0.7369  0.9257 -0.8221
23684SOL     OW72492   7.069   5.611   5.462  0.1832  0.2916  0.1558
23684SOL    HW172493   7.040   5.668   5.533 -0.3208 -1.1121  1.1136
23684SOL    HW272494   7.144   5.656   5.424 -1.1367  2.3505 -0.1605
23685SOL     OW72495   5.303   2.921   0.936 -0.0913 -0.5127 -0.4842
23685SOL    HW172496   5.253   2.969   0.870 -0.9069 -1.5990 -0.6855
23685SOL    HW272497   5.268   2.953   1.019  1.2682  1.2098 -0.5228
23686SOL     OW72498   5.184   7.602   6.744 -0.3643  0.5843  0.3921
23686SOL    HW172499   5.221   7.651   6.818 -0.4707  0.5153  0.4908
23686SOL    HW272500   5.114   7.659   6.711 -1.3713 -0.0889  1.3364
23687SOL     OW72501   4.767   2.550   1.571 -0.1934 -0.1964 -0.3328
23687SOL    HW172502   4.811   2.616   1.517  2.0641 -0.4341  1.0637
23687SOL    HW272503   4.687   2.529   1.523 -0.0112  2.0887 -1.8138
23688SOL     OW72504   3.847   4.460   2.731  0.4051 -0.3661 -0.4600
23688SOL    HW172505   3.799   4.482   2.811  0.1322 -2.1815 -0.0859
23688SOL    HW272506   3.815   4.523   2.666 -0.3246  0.3063  0.5135
23689SOL     OW72507   1.843   1.301   2.642 -0.3844 -0.0164 -0.4567
23689SOL    HW172508   1.813   1.355   2.570  2.0758 -0.3944 -1.9121
23689SOL    HW272509   1.860   1.362   2.714  1.5909  1.1376 -1.8065
23690SOL     OW72510   7.532   7.862   1.206  0.3536  0.0752 -0.3287
23690SOL    HW172511   7.512   7.799   1.275 -0.3743  0.5823 -0.0604
23690SOL    HW272512   7.617   7.898   1.230  0.0542  0.3327  0.3880
23691SOL     OW72513   1.535   5.883   9.404 -0.7104  0.2681  0.3654
23691SOL    HW172514   1.605   5.919   9.460  0.1548  1.7049 -1.4982
23691SOL    HW272515   1.541   5.788   9.416  2.9085  0.1457 -1.0878
23692SOL     OW72516   0.773   2.315   0.365 -0.0140  0.1127 -0.0268
23692SOL    HW172517   0.827   2.358   0.299  2.6544  0.2161  2.0091
23692SOL    HW272518   0.832   2.251   0.405 -1.4841  0.0682  2.2336
23693SOL     OW72519   4.959   5.691   8.637  0.5389  0.3418 -0.3498
23693SOL    HW172520   5.023   5.754   8.603  2.2105 -1.5378 -0.8867
23693SOL    HW272521   4.982   5.680   8.729  0.1799  0.5622 -0.2295
23694SOL     OW72522   7.631   7.055  12.268 -0.2351 -0.0553  0.8770
23694SOL    HW172523   7.674   7.137  12.244 -0.4588  0.5538  2.3959
23694SOL    HW272524   7.541   7.066  12.237 -1.0406  1.5157  3.3892
23695SOL     OW72525   3.566   2.885   7.989  0.2965 -0.0914 -0.4147
23695SOL    HW172526   3.596   2.929   7.910  0.0495 -1.2522 -1.1918
23695SOL    HW272527   3.646   2.858   8.035  0.4665 -1.0539 -1.2418
23696SOL     OW72528   1.677   7.276  11.107  0.1475 -0.0898 -0.4025
23696SOL    HW172529   1.704   7.365  11.084  1.6120 -0.0167  1.3155
23696SOL    HW272530   1.691   7.271  11.202 -2.2042 -1.4060 -0.0344
23697SOL     OW72531   0.796   6.762  10.181  0.1651 -0.3944  0.5874
23697SOL    HW172532   0.788   6.766  10.276  0.0130  2.0957  0.5303
23697SOL    HW272533   0.743   6.835  10.149 -1.2293 -2.2072 -1.5435
23698SOL     OW72534   5.845   1.461   9.849 -0.0813 -0.3326  0.7428
23698SOL    HW172535   5.844   1.471   9.945 -0.6725 -2.1634  0.9619
23698SOL    HW272536   5.777   1.397   9.831  2.8466 -3.4302 -0.4393
23699SOL     OW72537   0.969   7.520   6.613 -0.1180  0.2045 -0.0034
23699SOL    HW172538   1.019   7.599   6.630 -2.7275  1.6935  1.3571
23699SOL    HW272539   0.987   7.463   6.689 -1.1621  1.1438  0.9858
23700SOL     OW72540   0.344   3.332   6.686 -0.0325  0.3309  0.4404
23700SOL    HW172541   0.258   3.320   6.726 -0.0149  1.6881  0.9342
23700SOL    HW272542   0.401   3.355   6.759  0.5529  0.3369 -0.0136
23701SOL     OW72543   7.459   7.103   7.630  0.0537  0.2680 -0.3239
23701SOL    HW172544   7.488   7.108   7.721 -0.8266  2.1074 -0.0895
23701SOL    HW272545   7.449   7.009   7.612 -0.7788 -0.1086  1.8228
23702SOL     OW72546   2.523   4.986   2.489 -0.4060 -0.1561 -0.4389
23702SOL    HW172547   2.523   4.962   2.397  1.8996 -2.4912  0.0276
23702SOL    HW272548   2.449   4.939   2.527  0.0852 -1.1556 -0.7050
23703SOL     OW72549   0.483   7.149   5.528 -0.0313  0.0898 -0.5749
23703SOL    HW172550   0.421   7.214   5.562  0.2141 -0.2387  0.5269
23703SOL    HW272551   0.552   7.201   5.487  0.9915  0.6417  1.6929
23704SOL     OW72552   0.894   6.354   3.655 -0.1714 -0.2337 -0.0197
23704SOL    HW172553   0.960   6.418   3.682 -0.0649 -0.3498 -0.0047
23704SOL    HW272554   0.827   6.358   3.724 -0.0029 -0.3770  0.1500
23705SOL     OW72555   1.741   4.297   4.285 -0.4524 -0.8801  0.2608
23705SOL    HW172556   1.692   4.379   4.283 -1.1275 -1.2258  1.4778
23705SOL    HW272557   1.831   4.322   4.261 -0.5101  0.3254  1.1943
23706SOL     OW72558   3.085   0.052   9.179 -0.4683  0.6303 -0.5889
23706SOL    HW172559   3.148  -0.009   9.219  0.4984  1.4360 -0.8294
23706SOL    HW272560   3.048   0.003   9.106  0.2478  0.2829 -0.7343
23707SOL     OW72561   4.492   1.762   0.366 -0.5002  0.0683  0.1043
23707SOL    HW172562   4.496   1.744   0.273 -1.8153 -0.9461  0.2198
23707SOL    HW272563   4.476   1.677   0.407 -0.4990  0.5755  1.2094
23708SOL     OW72564   1.427   7.073   2.509  0.3879  0.0422  0.1598
23708SOL    HW172565   1.503   7.131   2.504  0.4603 -0.0324  0.3595
23708SOL    HW272566   1.462   6.990   2.539 -0.0609  0.6472  2.6274
23709SOL     OW72567   2.756   2.469   5.705  0.2058 -0.0279  0.0586
23709SOL    HW172568   2.690   2.448   5.771 -0.8070  2.0892 -0.2059
23709SOL    HW272569   2.800   2.386   5.688 -1.4755 -1.2223  1.2387
23710SOL     OW72570   4.672   4.419   2.990 -0.1612 -0.3493  0.8479
23710SOL    HW172571   4.581   4.430   2.960  0.5414  1.7691 -0.7723
23710SOL    HW272572   4.671   4.338   3.040 -3.1725  0.1017  1.7656
23711SOL     OW72573   6.372   5.527   4.536  0.1462 -0.1758  0.4346
23711SOL    HW172574   6.395   5.524   4.443  1.1266 -2.0327  0.6856
23711SOL    HW272575   6.296   5.586   4.540  0.0157 -0.1364 -1.5423
23712SOL     OW72576   5.343   1.005  10.540 -0.1909  0.2318 -0.2272
23712SOL    HW172577   5.268   1.057  10.570  0.3552  2.0815 -1.8326
23712SOL    HW272578   5.419   1.045  10.583  0.2531  0.8985 -1.5862
23713SOL     OW72579   0.823   2.441  11.777 -0.1894 -0.0052 -0.1897
23713SOL    HW172580   0.729   2.429  11.784  0.0256 -1.6061  0.4289
23713SOL    HW272581   0.858   2.406  11.859  0.8904  1.4553  0.0089
23714SOL     OW72582   1.980   3.503  11.862  0.0451  0.1206  0.5450
23714SOL    HW172583   1.885   3.501  11.860  0.0531 -0.2308 -0.8867
23714SOL    HW272584   2.006   3.494  11.770  1.4557  0.2052  0.9078
23715SOL     OW72585   5.170   3.634  11.803 -0.0057  0.5845 -0.1909
23715SOL    HW172586   5.083   3.662  11.832  0.4569  0.2382  1.6983
23715SOL    HW272587   5.209   3.596  11.882  1.8909  0.8065 -0.9929
23716SOL     OW72588   3.194   1.085   8.853 -0.1971 -0.3356  0.1792
23716SOL    HW172589   3.193   1.104   8.946 -1.6093  2.5722 -0.3094
23716SOL    HW272590   3.101   1.076   8.829  0.1280 -0.8021 -1.0011
23717SOL     OW72591   6.830   1.181   4.392 -0.8506 -0.7217 -0.5494
23717SOL    HW172592   6.751   1.222   4.425  0.4536  0.1022  1.7927
23717SOL    HW272593   6.821   1.088   4.414 -0.7940 -0.4731  0.5945
23718SOL     OW72594   0.417   5.730   8.577 -0.1286 -0.2965 -0.4006
23718SOL    HW172595   0.379   5.800   8.523  1.3203  0.9257  0.0959
23718SOL    HW272596   0.505   5.761   8.598 -0.0438 -1.5169  1.2432
23719SOL     OW72597   5.659   1.717   5.120  0.0673  0.3284  0.9952
23719SOL    HW172598   5.638   1.637   5.168  0.1923 -0.8837 -0.8557
23719SOL    HW272599   5.753   1.712   5.104 -0.2613 -0.3469 -1.0424
23720SOL     OW72600   3.445   1.588   8.924  0.1893  0.2877  0.4965
23720SOL    HW172601   3.390   1.509   8.921  0.9760 -0.2502 -1.2702
23720SOL    HW272602   3.509   1.575   8.854  1.8241  1.4399  1.7043
23721SOL     OW72603   3.931   0.435  11.499  0.2735 -0.4670  0.1456
23721SOL    HW172604   3.938   0.359  11.557 -3.7130 -0.1473  1.3848
23721SOL    HW272605   3.943   0.510  11.558 -0.0206 -0.1383 -0.2117
23722SOL     OW72606   7.613   6.469   4.153 -0.4504  0.2354  0.4240
23722SOL    HW172607   7.668   6.408   4.104  0.5171  0.2498  1.4443
23722SOL    HW272608   7.596   6.541   4.092 -2.3209 -1.3949 -1.0940
23723SOL     OW72609   5.314   7.638   2.609 -0.2131 -0.4232 -0.1260
23723SOL    HW172610   5.257   7.612   2.681 -1.7878 -1.2240 -1.6029
23723SOL    HW272611   5.402   7.616   2.639 -0.9404 -1.8434  1.0702
23724SOL     OW72612   4.939   3.745   7.086 -0.2261  0.0654 -0.2199
23724SOL    HW172613   4.923   3.757   7.179 -0.7289  0.7738 -0.3902
23724SOL    HW272614   4.990   3.664   7.080  0.8308  0.6419  0.7608
23725SOL     OW72615   5.208   2.947   8.480 -0.3734 -0.4674  0.0516
23725SOL    HW172616   5.169   2.866   8.448  0.3782 -0.7081 -0.2746
23725SOL    HW272617   5.292   2.920   8.517 -0.0820  0.1706 -0.1354
23726SOL     OW72618   5.874   2.397   1.682 -0.2434 -0.0562 -0.1120
23726SOL    HW172619   5.876   2.318   1.628 -2.2422  0.5542 -1.1592
23726SOL    HW272620   5.841   2.367   1.767  0.4743 -0.5828 -0.0096
23727SOL     OW72621   4.195   1.492   4.508  0.6180  0.1837  0.1366
23727SOL    HW172622   4.247   1.414   4.489  1.0558  0.5485 -0.1744
23727SOL    HW272623   4.120   1.486   4.449  1.0664  0.4077 -0.4626
23728SOL     OW72624   2.506   7.459   7.386  0.0455  0.2178  0.1053
23728SOL    HW172625   2.594   7.427   7.365  0.6192  2.7122 -1.8025
23728SOL    HW272626   2.518   7.510   7.467 -0.3893 -2.1446  1.7431
23729SOL     OW72627   5.226   2.258   7.883  0.4853 -0.2588  0.6102
23729SOL    HW172628   5.192   2.205   7.956 -2.5551  0.8463  0.1545
23729SOL    HW272629   5.155   2.318   7.863  3.0049  2.6414 -0.2724
23730SOL     OW72630   6.107   7.276   5.283  0.2773 -0.2643  0.4962
23730SOL    HW172631   6.121   7.190   5.244 -0.4876 -0.0465 -0.2896
23730SOL    HW272632   6.019   7.272   5.321  0.8144 -0.3123  1.8084
23731SOL     OW72633   2.032   5.967  11.825  0.0797  0.3661  0.0038
23731SOL    HW172634   2.124   5.993  11.812 -0.0007  0.1666 -1.0344
23731SOL    HW272635   2.030   5.875  11.800 -0.1586  0.0090  1.2600
23732SOL     OW72636   6.348   5.672   9.450  0.3880  0.4972 -0.5257
23732SOL    HW172637   6.390   5.709   9.527 -0.1386 -1.5556  0.8379
23732SOL    HW272638   6.303   5.594   9.482 -1.5429  0.6625 -2.5482
23733SOL     OW72639   7.275   0.758   7.815  0.3276  0.3162  0.5222
23733SOL    HW172640   7.261   0.838   7.867 -2.1241  0.4844 -0.2451
23733SOL    HW272641   7.202   0.701   7.840  1.3861 -1.2232  0.1854
23734SOL     OW72642   7.512   0.792   0.817 -0.2856  0.4950 -0.3043
23734SOL    HW172643   7.531   0.755   0.731  1.4991  0.9623 -0.1382
23734SOL    HW272644   7.422   0.763   0.836  0.5428 -2.7244 -0.7210
23735SOL     OW72645   4.537   0.282   7.604  0.3343  0.1818 -0.6287
23735SOL    HW172646   4.471   0.318   7.544  0.4599  0.6569 -0.4821
23735SOL    HW272647   4.584   0.358   7.637 -1.5725  0.2572  2.2756
23736SOL     OW72648   4.579   4.260   5.582  0.0504  0.9065 -0.7169
23736SOL    HW172649   4.608   4.170   5.595  1.6716  1.6916  2.1956
23736SOL    HW272650   4.625   4.289   5.503  0.0194 -0.5936 -1.3183
23737SOL     OW72651   1.000   3.692  10.074 -0.0099 -0.3414 -0.0166
23737SOL    HW172652   0.966   3.777  10.044  0.5886 -0.4811 -1.1467
23737SOL    HW272653   1.079   3.714  10.124  0.7579 -0.2722 -1.2206
23738SOL     OW72654   2.263   7.401   5.578 -0.0166 -0.4222 -1.0665
23738SOL    HW172655   2.196   7.333   5.583  0.5617 -1.1669 -2.6584
23738SOL    HW272656   2.341   7.355   5.546  0.5898  0.8451 -1.4676
23739SOL     OW72657   4.904   5.975   7.505  0.1993 -0.0660 -0.5847
23739SOL    HW172658   4.872   5.911   7.441  0.3735 -1.2875  0.4902
23739SOL    HW272659   4.880   5.937   7.590  2.5270  0.0565  0.1936
23740SOL     OW72660   0.573   0.383   2.813 -0.0465 -0.4345 -0.1000
23740SOL    HW172661   0.535   0.298   2.791  1.4385 -1.5782  1.4670
23740SOL    HW272662   0.603   0.373   2.903  2.5171  0.8586 -0.7098
23741SOL     OW72663   5.979   3.763   0.710  0.1633 -1.0224  0.0413
23741SOL    HW172664   6.004   3.721   0.792  0.5977  0.2048  0.5629
23741SOL    HW272665   6.018   3.851   0.715 -1.6301 -0.1491 -0.4939
23742SOL     OW72666   0.865   3.111   3.845 -0.1465 -0.0537  0.0841
23742SOL    HW172667   0.957   3.127   3.869 -0.2034  1.0185 -0.3607
23742SOL    HW272668   0.825   3.198   3.847 -1.0362 -0.4518 -0.2211
23743SOL     OW72669   5.289   7.263   5.794 -0.1546 -0.1919 -0.1496
23743SOL    HW172670   5.333   7.293   5.873 -0.6447 -1.4722  0.6491
23743SOL    HW272671   5.320   7.173   5.783 -0.9697 -0.4049 -0.7542
23744SOL     OW72672   0.150   5.337   0.330 -0.2291 -0.0029 -0.2764
23744SOL    HW172673   0.136   5.384   0.247 -1.3606 -0.3770 -0.3147
23744SOL    HW272674   0.236   5.368   0.360 -0.9466  2.1605 -0.2518
23745SOL     OW72675   6.396   2.055  10.877  0.3719 -0.1921  0.2546
23745SOL    HW172676   6.307   2.051  10.843  0.1729  0.7327  0.6399
23745SOL    HW272677   6.386   2.042  10.972  0.6333  0.0314  0.3134
23746SOL     OW72678   7.709   2.781   4.458  0.1323 -0.5152  0.1699
23746SOL    HW172679   7.642   2.788   4.390  0.5347 -0.2824 -0.2096
23746SOL    HW272680   7.679   2.709   4.514 -0.8635  0.1229  0.4936
23747SOL     OW72681   5.559   6.070   4.299 -0.7829  0.5801 -0.1453
23747SOL    HW172682   5.601   5.984   4.310 -0.1109  1.0198  0.8859
23747SOL    HW272683   5.471   6.058   4.336 -1.0566  0.0772 -0.9216
23748SOL     OW72684   3.637   1.434   4.217  0.0476  0.0311  0.3938
23748SOL    HW172685   3.663   1.483   4.139 -1.3395  1.6607  0.9041
23748SOL    HW272686   3.576   1.491   4.263 -0.3759 -1.5269  1.8944
23749SOL     OW72687   5.273   0.395   8.572  0.5227 -0.2907 -0.7125
23749SOL    HW172688   5.336   0.466   8.560  0.4611  0.0227  0.6615
23749SOL    HW272689   5.189   0.440   8.584  0.4259 -0.6129 -0.1956
23750SOL     OW72690   0.048   5.379   5.333 -0.5366 -0.7803 -0.0900
23750SOL    HW172691  -0.043   5.349   5.330 -1.2814  1.0876  1.2536
23750SOL    HW272692   0.041   5.475   5.336  1.4432 -0.6119  0.6557
23751SOL     OW72693   2.334   1.313   1.102  0.3224 -0.4389 -0.3244
23751SOL    HW172694   2.376   1.387   1.059  0.8094  0.2511  1.3049
23751SOL    HW272695   2.367   1.236   1.055 -0.5470  0.3357 -2.3487
23752SOL     OW72696   2.634   7.525  10.296  0.5701  0.2792 -0.3569
23752SOL    HW172697   2.622   7.618  10.276 -1.6927  0.3814  1.0824
23752SOL    HW272698   2.630   7.520  10.392  1.3051 -1.2457 -0.3700
23753SOL     OW72699   1.693   7.322   6.631  0.3616 -0.3901  0.0740
23753SOL    HW172700   1.739   7.328   6.547 -0.6355  2.0215 -0.3730
23753SOL    HW272701   1.609   7.282   6.610 -1.1850  2.9854 -0.7839
23754SOL     OW72702   6.808   4.531  10.272  0.4269  0.4098  0.3119
23754SOL    HW172703   6.726   4.559  10.232  0.0456  0.0057  0.7986
23754SOL    HW272704   6.802   4.560  10.363  0.0585 -1.1245  0.8050
23755SOL     OW72705   3.567   7.745   2.200 -0.7092 -0.5465 -0.0871
23755SOL    HW172706   3.567   7.660   2.157  2.1692 -1.1718  0.9221
23755SOL    HW272707   3.596   7.806   2.132 -1.9232 -0.4802 -0.5705
23756SOL     OW72708   2.054   7.677  11.533  0.1615  0.3618 -0.1777
23756SOL    HW172709   2.084   7.618  11.602 -0.1939 -1.3470 -1.4224
23756SOL    HW272710   2.133   7.721  11.502  0.4704  0.3418  0.5633
23757SOL     OW72711   1.098   4.953   3.672 -0.0675  0.0302  0.1573
23757SOL    HW172712   1.086   5.041   3.637 -2.4158 -0.2238  0.1742
23757SOL    HW272713   1.130   4.901   3.597  1.3970  0.8543  0.1682
23758SOL     OW72714   1.983   6.298   3.041  0.5971  0.2073  0.4569
23758SOL    HW172715   1.980   6.242   2.963 -0.6631 -0.5826  1.0387
23758SOL    HW272716   2.017   6.382   3.009  2.4065 -0.8115 -0.4610
23759SOL     OW72717   7.656   5.066   1.347  0.1249 -0.3970  0.0332
23759SOL    HW172718   7.705   5.041   1.269 -0.4749 -0.9411 -0.1775
23759SOL    HW272719   7.708   5.136   1.387 -0.7074  1.5406 -2.0781
23760SOL     OW72720   1.589   1.005  11.129  0.2359  0.2576  0.0949
23760SOL    HW172721   1.496   1.008  11.150  0.5979 -0.0796  1.9490
23760SOL    HW272722   1.603   1.078  11.069 -1.3273 -0.1196 -0.7750
23761SOL     OW72723   2.108   0.747   2.702  0.5541 -0.1748  0.7549
23761SOL    HW172724   2.151   0.828   2.729  1.1468 -0.2846  0.1655
23761SOL    HW272725   2.019   0.754   2.737  0.5867  0.7472  0.6691
23762SOL     OW72726   3.049   5.071   4.466  0.8234 -0.2992  0.2449
23762SOL    HW172727   3.079   4.997   4.412 -0.2611 -0.7513  0.2468
23762SOL    HW272728   3.008   5.131   4.404 -0.4228 -0.8181  0.5356
23763SOL     OW72729   4.769   5.520  11.759 -0.1631  0.0651 -0.1622
23763SOL    HW172730   4.840   5.574  11.793 -0.9672  0.2531  1.2826
23763SOL    HW272731   4.809   5.433  11.747  0.7766  0.6099 -1.2120
23764SOL     OW72732   3.018   0.549  11.690 -0.2099 -0.4278 -0.3042
23764SOL    HW172733   3.025   0.454  11.694  0.0716 -0.3734  0.8355
23764SOL    HW272734   3.014   0.577  11.782 -0.5073  0.6423 -0.6258
23765SOL     OW72735   1.033   3.511   2.407  0.3680  0.2565 -0.0066
23765SOL    HW172736   1.081   3.572   2.463 -1.3298  0.0530  1.8162
23765SOL    HW272737   1.081   3.429   2.413 -1.3222 -0.7129  3.9088
23766SOL     OW72738   1.578   2.786   9.197 -0.0749  0.4140 -0.2920
23766SOL    HW172739   1.576   2.858   9.134 -0.4632 -0.2947 -1.1246
23766SOL    HW272740   1.672   2.766   9.206 -0.0661 -0.5965 -2.0249
23767SOL     OW72741   4.218   6.001  11.694 -0.1663 -0.0775 -0.2086
23767SOL    HW172742   4.277   6.001  11.618  0.3706 -0.6121  0.1903
23767SOL    HW272743   4.253   5.931  11.750  1.5897  2.4983  2.1734
23768SOL     OW72744   6.482   0.320   9.933 -0.1673 -0.2264 -0.2371
23768SOL    HW172745   6.544   0.306  10.005 -0.8989 -1.3348  0.2081
23768SOL    HW272746   6.493   0.243   9.877  1.2485  1.1676 -2.0119
23769SOL     OW72747   1.195   4.197  10.014  0.1794 -0.2867  0.2111
23769SOL    HW172748   1.272   4.141   9.999 -0.7549 -1.0685 -2.1396
23769SOL    HW272749   1.206   4.229  10.104  1.7571 -2.6823  0.9742
23770SOL     OW72750   1.761   3.433   5.094 -0.3552 -0.1849 -0.0092
23770SOL    HW172751   1.758   3.397   5.005 -1.5779 -0.0995 -0.0286
23770SOL    HW272752   1.728   3.523   5.084  1.5701  0.5895  0.2107
23771SOL     OW72753   5.025   1.158   5.540  0.2399 -0.2961  0.7614
23771SOL    HW172754   5.093   1.209   5.495 -0.1695 -0.5072 -0.1019
23771SOL    HW272755   4.951   1.159   5.481  0.0027 -1.3494  1.0305
23772SOL     OW72756   5.883   3.442   4.530  0.0763 -0.7348 -0.0272
23772SOL    HW172757   5.811   3.380   4.540  1.0191 -1.9718 -0.6815
23772SOL    HW272758   5.841   3.528   4.528 -1.1295 -1.1415  2.7677
23773SOL     OW72759   1.324   2.297   2.255  0.4678  0.2917  0.7003
23773SOL    HW172760   1.237   2.272   2.222  0.7338 -1.7025  1.3905
23773SOL    HW272761   1.338   2.240   2.331  1.9302  1.3557  1.2607
23774SOL     OW72762   0.454   2.561   4.477  0.2192  0.0493  0.3382
23774SOL    HW172763   0.388   2.526   4.536  1.9136 -1.0717  1.6663
23774SOL    HW272764   0.426   2.533   4.390 -0.0161 -2.1850  1.0857
23775SOL     OW72765   5.718   7.163   5.920  0.0699 -0.1739  0.6105
23775SOL    HW172766   5.669   7.090   5.882  0.0366 -0.0770  0.4642
23775SOL    HW272767   5.791   7.177   5.860  0.4567 -0.5208  0.9975
23776SOL     OW72768   1.984   7.322   0.468 -0.4101  0.5359  0.0517
23776SOL    HW172769   1.955   7.352   0.554 -3.9058  1.8189 -1.3926
23776SOL    HW272770   1.903   7.310   0.418  1.4766  2.4278 -3.8930
23777SOL     OW72771   0.889   6.912   4.700  0.2345  0.2381 -0.7318
23777SOL    HW172772   0.808   6.870   4.670  0.9862  0.3146 -3.0911
23777SOL    HW272773   0.931   6.846   4.755 -1.3216  0.1326  0.3951
23778SOL     OW72774   6.686   4.404   3.282 -0.6726 -0.0119  0.3630
23778SOL    HW172775   6.721   4.414   3.194 -1.6017 -1.5357 -0.2203
23778SOL    HW272776   6.758   4.368   3.333 -0.4401 -0.1162 -0.0387
23779SOL     OW72777   2.271   1.624   8.561 -0.0383  0.2030 -0.0049
23779SOL    HW172778   2.293   1.546   8.510  0.2949 -0.1502  0.6813
23779SOL    HW272779   2.355   1.658   8.591 -0.1956  0.7256 -0.1500
23780SOL     OW72780   6.892   2.121   7.463 -0.0074 -0.1231  0.1419
23780SOL    HW172781   6.826   2.078   7.517  0.0562  0.0300  0.3449
23780SOL    HW272782   6.892   2.211   7.494  1.1019 -0.3750  0.9500
23781SOL     OW72783   0.198   2.664   6.594 -0.5714 -0.1060  0.0961
23781SOL    HW172784   0.224   2.722   6.522  0.2378 -0.9150 -0.2820
23781SOL    HW272785   0.229   2.577   6.568  1.7848 -0.0752  2.4253
23782SOL     OW72786   4.320   7.096   1.888  0.2243  0.2301  0.0003
23782SOL    HW172787   4.406   7.137   1.901  1.2485 -1.2883 -1.6113
23782SOL    HW272788   4.322   7.062   1.799 -0.8608 -2.5533  0.9116
23783SOL     OW72789   5.538   4.761  11.646 -0.0830  0.5270  0.9569
23783SOL    HW172790   5.458   4.813  11.656  0.8148  2.0656  0.4876
23783SOL    HW272791   5.517   4.699  11.576 -0.5599  1.5817  0.1244
23784SOL     OW72792   7.306   2.003   5.006  0.6072  0.1626  0.2817
23784SOL    HW172793   7.301   1.911   4.983 -0.2513  0.8009 -2.4188
23784SOL    HW272794   7.334   2.047   4.926 -0.9100  2.4373  0.8921
23785SOL     OW72795   3.527   6.574  10.911 -0.1250 -0.7906 -0.1096
23785SOL    HW172796   3.511   6.526  10.993 -1.2354  0.0131  0.1578
23785SOL    HW272797   3.557   6.660  10.940 -1.4065 -0.1869 -0.5101
23786SOL     OW72798   1.066   4.278   7.243 -0.1171 -0.4185  0.0464
23786SOL    HW172799   1.131   4.322   7.189 -0.9280 -0.2129 -0.7875
23786SOL    HW272800   1.057   4.191   7.204  0.2326 -0.7288  0.6440
23787SOL     OW72801   6.394   4.941   5.635 -0.0358 -0.1600 -0.2823
23787SOL    HW172802   6.439   5.013   5.680  0.9749 -2.0963  2.0453
23787SOL    HW272803   6.456   4.914   5.567  0.4546 -0.0626  0.1128
23788SOL     OW72804   3.651   7.333   8.581  0.0740 -0.2481 -0.1018
23788SOL    HW172805   3.694   7.248   8.591 -0.5994 -0.6450 -0.5777
23788SOL    HW272806   3.695   7.374   8.507 -0.2794 -0.6015 -0.5085
23789SOL     OW72807   0.604   4.153   0.004  0.4500  0.2761 -0.2799
23789SOL    HW172808   0.521   4.148  -0.042 -0.9353 -1.6586  2.1522
23789SOL    HW272809   0.594   4.227   0.064  0.3026 -0.2022  0.2935
23790SOL     OW72810   5.230   3.588   0.603 -0.7254 -0.2208 -0.1336
23790SOL    HW172811   5.316   3.580   0.644 -0.1173  0.2361 -1.2604
23790SOL    HW272812   5.183   3.652   0.656  0.3577  1.0239 -0.6209
23791SOL     OW72813   3.045   2.026   8.908 -0.3405 -0.4047  0.0220
23791SOL    HW172814   3.044   1.933   8.889  3.2111 -0.3895 -1.0118
23791SOL    HW272815   3.042   2.032   9.004  0.1441 -1.6434  0.1299
23792SOL     OW72816   1.815   4.261   7.200  0.3379  0.2499 -0.6822
23792SOL    HW172817   1.793   4.194   7.264  0.7653 -1.1830 -1.9803
23792SOL    HW272818   1.904   4.241   7.174 -0.0943  0.2978 -2.2995
23793SOL     OW72819   2.818   0.146   8.357 -0.5051 -0.0239  0.0614
23793SOL    HW172820   2.780   0.158   8.270 -0.4684 -1.3673 -0.1490
23793SOL    HW272821   2.778   0.066   8.390  1.5161 -1.0455  0.1646
23794SOL     OW72822   0.820   5.600   4.269  0.0568  0.0533 -0.5566
23794SOL    HW172823   0.786   5.690   4.275  1.1499  0.5069 -0.9764
23794SOL    HW272824   0.905   5.609   4.225  1.2259 -0.9329  1.3902
23795SOL     OW72825   4.012   7.049  10.253 -0.0796  0.6160  0.1181
23795SOL    HW172826   4.011   6.980  10.319 -2.8073 -0.0973 -0.5388
23795SOL    HW272827   3.945   7.111  10.282  1.1915  2.1807 -0.1647
23796SOL     OW72828   6.242   7.012   3.850 -0.3457  0.1897 -0.5543
23796SOL    HW172829   6.299   7.089   3.848  1.5441 -1.1618 -2.6136
23796SOL    HW272830   6.292   6.945   3.895 -3.0296  0.7094  3.8040
23797SOL     OW72831   1.266   4.287  10.251 -0.0029 -0.6868  0.0949
23797SOL    HW172832   1.360   4.280  10.233 -0.5887 -2.1518 -3.0350
23797SOL    HW272833   1.250   4.381  10.259  1.2095 -0.0899 -3.1393
23798SOL     OW72834   4.455   6.137   6.502  0.7287 -0.0885 -0.2260
23798SOL    HW172835   4.476   6.123   6.409  2.4328  0.2119  0.0919
23798SOL    HW272836   4.458   6.049   6.540 -2.3476 -0.5816 -0.8428
23799SOL     OW72837   0.231   5.490  11.109 -0.3671 -0.1634 -0.1823
23799SOL    HW172838   0.320   5.493  11.074 -0.1668  1.7150  0.3490
23799SOL    HW272839   0.175   5.484  11.031  0.2121 -1.2849 -0.5240
23800SOL     OW72840   3.637   4.525   9.958 -0.1375  0.3705  0.6173
23800SOL    HW172841   3.710   4.464   9.971 -1.2575 -1.0824  0.4284
23800SOL    HW272842   3.559   4.469   9.963 -1.0956  1.0842 -3.3943
23801SOL     OW72843   1.151   0.198   3.233 -0.1114 -0.1751 -0.0666
23801SOL    HW172844   1.163   0.268   3.169 -1.1915 -0.2840 -0.4199
23801SOL    HW272845   1.103   0.130   3.185 -0.6366 -0.4036  0.7527
23802SOL     OW72846   1.771   1.043   6.231 -0.0931 -0.0123 -0.5443
23802SOL    HW172847   1.845   1.048   6.171  0.4837  0.0451  0.1612
23802SOL    HW272848   1.810   1.029   6.317 -0.9205 -0.3462 -0.2109
23803SOL     OW72849   5.667   5.603   8.845  0.0597  0.0633  0.5690
23803SOL    HW172850   5.759   5.594   8.818  0.2776 -1.9825  1.7124
23803SOL    HW272851   5.669   5.586   8.940 -1.5103 -0.2366  0.5715
23804SOL     OW72852   1.167   7.453   4.956  0.5787 -0.5666  0.2130
23804SOL    HW172853   1.233   7.386   4.970  0.8445 -0.3124  0.1900
23804SOL    HW272854   1.208   7.515   4.896  0.1726 -0.6155 -0.1209
23805SOL     OW72855   3.363   3.752   1.658  0.0881 -0.1896 -0.2558
23805SOL    HW172856   3.424   3.738   1.585  0.1008 -3.0862  0.2047
23805SOL    HW272857   3.276   3.741   1.620  0.0461 -0.5252 -0.0654
23806SOL     OW72858   6.026   2.202   9.406 -0.1587 -0.6187  0.2677
23806SOL    HW172859   5.969   2.279   9.406 -0.3622 -0.7367  1.4897
23806SOL    HW272860   5.976   2.135   9.359 -0.1052 -0.1013 -0.5441
23807SOL     OW72861   7.534   5.768  12.294  0.3314 -0.1464 -0.2490
23807SOL    HW172862   7.627   5.780  12.315  0.4059  2.5499 -1.6768
23807SOL    HW272863   7.528   5.784  12.200 -1.7123  0.6955 -0.0261
23808SOL     OW72864   0.589   5.071   1.843  0.3458 -0.5745  0.3531
23808SOL    HW172865   0.538   5.027   1.911  0.9446 -1.0656  0.4878
23808SOL    HW272866   0.582   5.014   1.767 -1.9094  0.8681 -0.6581
23809SOL     OW72867   1.967   6.921   6.317  0.1760 -0.4557  0.6251
23809SOL    HW172868   1.911   6.959   6.384 -2.2031  0.8957 -1.9485
23809SOL    HW272869   1.942   6.828   6.315  1.8117 -1.0348  2.9225
23810SOL     OW72870   4.966   0.535   3.143  0.2825  0.1173  0.0522
23810SOL    HW172871   4.979   0.457   3.198 -0.6165 -0.5751 -0.6731
23810SOL    HW272872   5.044   0.588   3.158 -0.0130  0.0462  2.1222
23811SOL     OW72873   1.645   3.095   5.517  0.2913 -0.4149  0.3565
23811SOL    HW172874   1.648   3.122   5.426  0.6133 -2.3638 -0.2576
23811SOL    HW272875   1.619   3.002   5.514 -1.1458 -0.1465  2.3200
23812SOL     OW72876   1.773   6.852   8.702 -0.1589  0.3502  0.0172
23812SOL    HW172877   1.860   6.892   8.715  0.7475 -1.2924 -0.6509
23812SOL    HW272878   1.731   6.858   8.787  0.9288  0.5030  0.5653
23813SOL     OW72879   7.173   6.898   9.719  0.0394 -0.1958 -0.0813
23813SOL    HW172880   7.095   6.882   9.773 -0.8670  1.0454 -0.9580
23813SOL    HW272881   7.173   6.993   9.706  0.3153 -0.4372 -2.1041
23814SOL     OW72882   3.421   1.347   2.191  0.2195  0.3477  0.0149
23814SOL    HW172883   3.395   1.279   2.129  1.4546 -0.1314 -0.0015
23814SOL    HW272884   3.354   1.345   2.259  0.4418 -1.1629  0.2121
23815SOL     OW72885   0.753   0.055   5.507 -0.3940 -0.1978  0.2049
23815SOL    HW172886   0.811   0.044   5.583 -1.5085  0.5080  1.2025
23815SOL    HW272887   0.805   0.104   5.443  0.3158 -0.1215  0.8286
23816SOL     OW72888   2.764   0.880   3.048 -0.0911 -0.6260  0.2477
23816SOL    HW172889   2.776   0.799   3.098 -0.5326 -0.7096  0.2210
23816SOL    HW272890   2.686   0.920   3.086  0.0818 -0.2490  0.2104
23817SOL     OW72891   1.366   5.267   3.097 -0.4320 -0.0826  0.0864
23817SOL    HW172892   1.368   5.362   3.110 -0.6332 -0.3383  2.2997
23817SOL    HW272893   1.363   5.230   3.185 -0.4806 -2.1638 -0.7217
23818SOL     OW72894   1.952   3.101   8.297  0.8340 -0.5052  0.8489
23818SOL    HW172895   1.922   3.186   8.264  3.1510 -0.3195 -1.0639
23818SOL    HW272896   1.942   3.107   8.392 -0.4923  1.2953  0.6539
23819SOL     OW72897   2.368   7.818   3.842 -0.3626 -0.1694  0.0462
23819SOL    HW172898   2.363   7.823   3.747 -2.6499  2.0180  0.1640
23819SOL    HW272899   2.353   7.908   3.871  1.1307 -0.6031  2.5054
23820SOL     OW72900   6.296   5.201   9.134  0.2037 -0.3368 -0.2396
23820SOL    HW172901   6.299   5.229   9.043  1.6863  3.1610  0.7245
23820SOL    HW272902   6.261   5.276   9.181  1.9111 -1.0379  2.3537
23821SOL     OW72903   5.087   5.065   6.465  0.5000  0.1364 -0.3530
23821SOL    HW172904   5.179   5.081   6.443  1.1550 -2.7690 -0.1163
23821SOL    HW272905   5.053   5.014   6.391 -1.5193  2.5616 -1.2681
23822SOL     OW72906   0.986   1.508  11.704  0.4191  0.1456 -0.4248
23822SOL    HW172907   1.051   1.445  11.734 -0.4825  0.0970  1.6178
23822SOL    HW272908   0.956   1.474  11.620  1.7263 -0.7824 -0.5447
23823SOL     OW72909   2.702   1.196  12.249 -0.3167 -0.0812 -0.4823
23823SOL    HW172910   2.692   1.202  12.154 -0.8718 -2.4347 -0.6381
23823SOL    HW272911   2.612   1.185  12.281 -0.2075  1.4028  0.4184
23824SOL     OW72912   4.540   3.652   9.691  0.5483  0.0873  0.1407
23824SOL    HW172913   4.552   3.744   9.667  0.1936  0.6449  1.9223
23824SOL    HW272914   4.615   3.632   9.747 -0.5128  0.0029  1.5955
23825SOL     OW72915   5.376   0.013  10.838 -0.2687 -0.1158 -0.4425
23825SOL    HW172916   5.311   0.034  10.771 -0.5275  1.1000  0.1664
23825SOL    HW272917   5.455   0.059  10.811 -0.2867  0.1337 -0.0788
23826SOL     OW72918   7.375   2.874   6.779 -0.1220 -0.1768 -0.5606
23826SOL    HW172919   7.318   2.950   6.791 -0.3984 -0.1234 -1.9604
23826SOL    HW272920   7.370   2.826   6.862 -2.5079 -0.3520 -0.7273
23827SOL     OW72921   1.679   5.805   8.720 -0.4739 -0.5966  0.1274
23827SOL    HW172922   1.726   5.887   8.735 -0.4539 -0.7622  1.0405
23827SOL    HW272923   1.731   5.760   8.654  0.3041 -0.4810  0.6434
23828SOL     OW72924   7.426   6.206  11.345  0.3967  0.0788 -0.0305
23828SOL    HW172925   7.504   6.160  11.377  0.4741 -0.6229 -1.1959
23828SOL    HW272926   7.430   6.198  11.250 -1.1768 -0.0887 -0.1070
23829SOL     OW72927   6.377   3.088   0.859  0.4465 -0.7832 -0.0196
23829SOL    HW172928   6.468   3.068   0.880  0.7746  1.9772  1.6065
23829SOL    HW272929   6.381   3.166   0.805 -0.9520 -1.3110 -0.9314
23830SOL     OW72930   2.472   5.885   7.319  0.0617  0.2076 -0.0898
23830SOL    HW172931   2.389   5.856   7.282 -0.1603  0.8187 -0.0814
23830SOL    HW272932   2.482   5.834   7.399 -0.8125  0.8604  0.4538
23831SOL     OW72933   4.146   5.454  11.481 -0.1292 -0.4124 -0.1501
23831SOL    HW172934   4.070   5.509  11.499  0.0311 -0.3354  0.3180
23831SOL    HW272935   4.221   5.509  11.506  0.0486 -0.7097 -0.0244
23832SOL     OW72936   0.646   0.968  10.310 -1.0840 -0.0774  0.0822
23832SOL    HW172937   0.644   1.044  10.368 -0.9187  1.0341 -1.3208
23832SOL    HW272938   0.559   0.966  10.270 -1.0218 -0.5129 -0.0407
23833SOL     OW72939   1.841   7.289   9.251 -0.3444 -0.3309  0.7520
23833SOL    HW172940   1.754   7.261   9.223 -0.5274 -0.4202  1.3861
23833SOL    HW272941   1.850   7.253   9.339 -0.4478  1.2756  1.4635
23834SOL     OW72942   4.984   5.677  11.823 -0.1238 -0.6598  0.1892
23834SOL    HW172943   5.062   5.635  11.859 -0.0154 -0.3200  0.3547
23834SOL    HW272944   4.980   5.762  11.866 -1.3031 -1.1614  1.1630
23835SOL     OW72945   3.743   4.044   7.296 -0.0210  0.0086 -0.6750
23835SOL    HW172946   3.710   4.108   7.233  0.4489 -1.0095 -2.0074
23835SOL    HW272947   3.798   4.095   7.355 -0.4045  0.9846 -1.1389
23836SOL     OW72948   4.288   1.450   9.572 -0.3724  0.6161  0.1995
23836SOL    HW172949   4.345   1.521   9.603 -1.0179  2.4797 -2.5583
23836SOL    HW272950   4.328   1.421   9.490 -0.5156 -1.8208  0.9099
23837SOL     OW72951   0.750   7.703   7.357 -1.1360 -0.0504 -0.4411
23837SOL    HW172952   0.813   7.699   7.429 -2.0416 -1.7000  0.3118
23837SOL    HW272953   0.665   7.691   7.399 -2.2072  3.4259 -1.2563
23838SOL     OW72954   6.763   2.828  11.545 -0.6888 -0.2195 -0.7148
23838SOL    HW172955   6.699   2.759  11.525 -1.4544  0.2173  0.1420
23838SOL    HW272956   6.749   2.893  11.475 -2.7148  0.8684  0.5847
23839SOL     OW72957   6.693   0.392   0.327 -0.1550 -0.3131 -0.3392
23839SOL    HW172958   6.747   0.333   0.274  0.4728 -1.5255  1.5401
23839SOL    HW272959   6.756   0.447   0.373 -0.6806  0.5580 -0.6312
23840SOL     OW72960   2.658   0.379   7.383  0.3995  0.3020 -0.0886
23840SOL    HW172961   2.581   0.322   7.371  0.2153  0.7392 -1.0839
23840SOL    HW272962   2.732   0.326   7.354  0.4177  0.0759  0.3512
23841SOL     OW72963   1.102   0.508   9.400 -0.5802  0.2264 -0.1917
23841SOL    HW172964   1.120   0.486   9.309 -1.3193 -1.5281  0.0415
23841SOL    HW272965   1.013   0.543   9.399 -1.3620 -1.6385  0.0607
23842SOL     OW72966   5.341   6.773   8.439  0.1318 -0.4990 -0.2053
23842SOL    HW172967   5.381   6.792   8.524 -0.2339  0.3769 -0.2282
23842SOL    HW272968   5.247   6.782   8.454 -0.1435 -2.9683 -0.0451
23843SOL     OW72969   5.882   7.297  10.858 -0.1932  0.2384 -0.3859
23843SOL    HW172970   5.869   7.388  10.833  0.7642  0.0627 -1.6118
23843SOL    HW272971   5.896   7.251  10.775 -0.0277 -0.9173  0.2648
23844SOL     OW72972   3.058   4.230   2.057  0.0416 -0.0037  0.1687
23844SOL    HW172973   3.036   4.149   2.102 -0.4181 -0.1446 -0.3031
23844SOL    HW272974   2.995   4.236   1.986  0.8453  0.1317 -0.5595
23845SOL     OW72975   5.796   0.288   6.544 -0.1369 -0.5083  0.2500
23845SOL    HW172976   5.771   0.359   6.602  1.6191 -0.4079  0.9531
23845SOL    HW272977   5.834   0.222   6.603  1.2266 -0.6150 -0.7121
23846SOL     OW72978   1.305   5.472   9.512  0.0956  0.2744 -0.0864
23846SOL    HW172979   1.297   5.457   9.607 -0.7582 -1.2192 -0.3702
23846SOL    HW272980   1.262   5.556   9.498  0.5655  0.7025  0.8970
23847SOL     OW72981   4.166   4.512   6.352  0.1532  0.4151 -0.1691
23847SOL    HW172982   4.109   4.569   6.404 -0.8371 -0.8057  0.1290
23847SOL    HW272983   4.251   4.555   6.355  0.2095  0.2893  2.7143
23848SOL     OW72984   7.234   5.539  11.082 -0.3255 -0.0708  0.1510
23848SOL    HW172985   7.158   5.552  11.025 -0.2602 -2.3685 -0.5682
23848SOL    HW272986   7.302   5.506  11.023  0.4607 -0.3905  1.2081
23849SOL     OW72987   4.068   2.010   9.368 -0.0301 -0.0196  0.1408
23849SOL    HW172988   4.115   1.931   9.342  0.3479 -0.4465  1.9934
23849SOL    HW272989   4.089   2.073   9.299 -0.8369 -1.6698 -1.7164
23850SOL     OW72990   1.721   1.991   1.582 -0.5193  0.4420 -0.3884
23850SOL    HW172991   1.640   1.940   1.586 -1.5930  2.0732 -0.0144
23850SOL    HW272992   1.763   1.964   1.501 -0.2060 -2.1646  0.5628
23851SOL     OW72993   4.061   2.217  11.434 -0.5921 -1.1724  0.1187
23851SOL    HW172994   4.103   2.258  11.509  1.1377 -1.6370 -0.5409
23851SOL    HW272995   3.971   2.199  11.463 -0.4390  0.1031  1.5006
23852SOL     OW72996   7.693   0.187   7.859  0.3428  0.1427  0.0692
23852SOL    HW172997   7.732   0.275   7.864 -0.5121  0.5550 -0.3681
23852SOL    HW272998   7.624   0.195   7.793  0.0570 -0.7842  0.2464
23853SOL     OW72999   2.315   6.095   1.092  0.1488  0.0879  0.1925
23853SOL    HW173000   2.226   6.131   1.093  0.4443  1.0246 -1.8428
23853SOL    HW273001   2.362   6.145   1.159 -0.4459  0.7810  0.1065
23854SOL     OW73002   6.615   6.159   2.122 -0.5414  0.2866 -0.0788
23854SOL    HW173003   6.693   6.213   2.106 -1.7401  2.6470  1.4520
23854SOL    HW273004   6.616   6.141   2.215 -0.7376 -1.5423 -0.3968
23855SOL     OW73005   3.050   3.569   4.365  0.3512  0.1122 -0.5213
23855SOL    HW173006   2.970   3.550   4.413  0.9341 -0.8993  0.0765
23855SOL    HW273007   3.084   3.649   4.406 -0.3243  0.5289 -0.7600
23856SOL     OW73008   2.635   2.719   7.713 -0.1677  0.2263 -0.5210
23856SOL    HW173009   2.699   2.773   7.760  0.8883 -0.9660 -0.5414
23856SOL    HW273010   2.550   2.756   7.738  0.4542  0.8289  0.8002
23857SOL     OW73011   4.867   2.719   9.701  0.1570  0.4668 -0.1574
23857SOL    HW173012   4.786   2.713   9.650 -0.4726 -0.4661  0.8842
23857SOL    HW273013   4.840   2.697   9.791  1.4317  0.8870  0.3527
23858SOL     OW73014   1.213   3.436   5.731  0.4563  0.4096 -0.0656
23858SOL    HW173015   1.242   3.504   5.791  0.4831  0.2637  0.0883
23858SOL    HW273016   1.127   3.410   5.763  0.4821  0.3119 -0.0747
23859SOL     OW73017   0.167   5.388   6.733  0.0287 -0.3133 -0.0780
23859SOL    HW173018   0.118   5.391   6.815 -0.9416  1.4865 -0.6680
23859SOL    HW273019   0.250   5.432   6.752  0.6911 -1.7448  0.4479
23860SOL     OW73020   3.029   1.462   1.275 -0.6078  0.1111 -0.0043
23860SOL    HW173021   3.002   1.370   1.269  0.5131 -0.1382 -2.1171
23860SOL    HW273022   3.104   1.461   1.335  0.1086 -0.5610 -0.8826
23861SOL     OW73023   4.638   6.655  11.454 -0.2445 -0.3311  0.3273
23861SOL    HW173024   4.665   6.598  11.525 -0.5581 -1.1390 -0.1750
23861SOL    HW273025   4.626   6.741  11.494  1.3301 -0.3446  0.8844
23862SOL     OW73026   2.491   5.809   2.328 -0.3883  0.8277  0.0935
23862SOL    HW173027   2.552   5.875   2.362  0.5619 -0.2813  0.6010
23862SOL    HW273028   2.504   5.733   2.384 -0.4775 -0.2578 -1.3082
23863SOL     OW73029   7.300   4.439   7.049  0.8345 -0.5144 -0.5976
23863SOL    HW173030   7.364   4.435   6.978 -0.8736  2.4624 -2.4979
23863SOL    HW273031   7.332   4.508   7.107 -0.1665  0.3600 -1.0708
23864SOL     OW73032   1.751   0.197  12.057 -0.0192 -0.6089 -0.1608
23864SOL    HW173033   1.819   0.264  12.064  0.1137 -0.7649  0.0095
23864SOL    HW273034   1.670   0.244  12.077  0.1363 -0.6261  0.5050
23865SOL     OW73035   3.103   2.263   6.290  0.3070  0.1129 -0.1033
23865SOL    HW173036   3.147   2.301   6.214 -1.4494  1.3014 -0.6018
23865SOL    HW273037   3.147   2.303   6.366  0.7808  0.4514 -0.5515
23866SOL     OW73038   0.848   1.403   2.781  0.6459  0.2980 -0.0761
23866SOL    HW173039   0.768   1.366   2.817 -0.0041  2.0608  0.3775
23866SOL    HW273040   0.819   1.478   2.729  1.8981  0.0994 -1.1362
23867SOL     OW73041   7.897   6.807   3.609  0.3447  0.1177  0.4249
23867SOL    HW173042   7.825   6.750   3.584  1.1562 -0.2514 -1.1788
23867SOL    HW273043   7.877   6.891   3.567 -0.1148  0.6331  1.6020
23868SOL     OW73044   4.650   1.977   2.303  0.0592  0.4077 -0.3198
23868SOL    HW173045   4.585   1.945   2.241  0.1046  1.0818 -0.7173
23868SOL    HW273046   4.637   2.071   2.306  0.1511  0.3980  0.5970
23869SOL     OW73047   1.168   5.346  10.653  0.3038  0.0910 -0.2016
23869SOL    HW173048   1.233   5.316  10.590 -1.7807 -1.0817 -1.9528
23869SOL    HW273049   1.160   5.274  10.716  0.2996 -0.0047 -0.3117
23870SOL     OW73050   3.065   3.628  11.605 -0.6442  0.3268  0.7443
23870SOL    HW173051   3.132   3.688  11.573 -0.9758  0.3528  0.0816
23870SOL    HW273052   3.071   3.552  11.548 -0.6968  0.0209  1.1407
23871SOL     OW73053   4.283   2.741   6.181 -0.4101 -0.5688  0.3584
23871SOL    HW173054   4.304   2.827   6.219 -0.8751  0.0957 -0.8194
23871SOL    HW273055   4.235   2.762   6.101  0.6588 -1.9207 -0.6648
23872SOL     OW73056   3.447   4.330   1.335  0.1287 -0.6595  0.2517
23872SOL    HW173057   3.512   4.260   1.329  1.3987  0.4431  0.8245
23872SOL    HW273058   3.401   4.313   1.417  0.0049 -1.1591  0.0849
23873SOL     OW73059   3.090   7.496   1.328 -0.1496 -0.2579  0.7024
23873SOL    HW173060   3.059   7.406   1.331 -0.3643 -0.1896  0.5352
23873SOL    HW273061   3.182   7.489   1.300 -0.4014 -0.3781 -0.1167
23874SOL     OW73062   1.428   3.347   7.277  0.6310  0.5317  0.6189
23874SOL    HW173063   1.362   3.314   7.338 -0.0683  0.0276 -0.3712
23874SOL    HW273064   1.484   3.271   7.260  1.2947  0.8761  1.2137
23875SOL     OW73065   7.365   2.092   4.770 -0.0799  0.1165 -0.1273
23875SOL    HW173066   7.335   2.121   4.684 -0.4189  1.2144  0.3486
23875SOL    HW273067   7.420   2.163   4.802 -0.4392 -0.0127  0.8100
23876SOL     OW73068   0.455   7.719  10.625 -0.0413  0.1180 -0.1349
23876SOL    HW173069   0.450   7.743  10.533 -1.4138  1.1196  0.1753
23876SOL    HW273070   0.461   7.623  10.624 -3.9485 -0.3231 -1.2801
23877SOL     OW73071   7.629   6.783  12.276  0.1860  0.1113  0.3926
23877SOL    HW173072   7.547   6.790  12.325  0.8535  1.5718  1.3840
23877SOL    HW273073   7.657   6.874  12.263  1.4727 -0.3488 -0.2226
23878SOL     OW73074   6.284   3.749  10.080 -0.0726 -0.5261 -0.2510
23878SOL    HW173075   6.367   3.704  10.099  0.9147  1.1036 -0.5542
23878SOL    HW273076   6.238   3.689  10.022  0.8167 -1.5378  0.0435
23879SOL     OW73077   2.178   0.922   5.213 -0.2795  0.7135  0.5556
23879SOL    HW173078   2.181   0.832   5.246 -0.0631 -0.7456 -2.9419
23879SOL    HW273079   2.229   0.973   5.276 -0.0359 -1.6919  2.4389
23880SOL     OW73080   3.127   2.023   5.584  0.6567  0.1704  0.0642
23880SOL    HW173081   3.105   2.025   5.491  0.5250  1.4034  0.1067
23880SOL    HW273082   3.044   2.036   5.628  0.5705 -1.3415  0.4037
23881SOL     OW73083   2.599   0.583   9.797 -0.0884  0.1970  0.5106
23881SOL    HW173084   2.580   0.533   9.877  0.4620 -0.1098  0.4593
23881SOL    HW273085   2.695   0.581   9.790 -0.1770 -1.0487 -0.9480
23882SOL     OW73086   7.527   5.753  10.916 -0.3713 -0.1851  0.0292
23882SOL    HW173087   7.612   5.743  10.874 -1.0423  2.6883 -2.3774
23882SOL    HW273088   7.472   5.687  10.874  0.3786 -1.3668  0.8546
23883SOL     OW73089   1.646   0.185   1.466 -0.3838  0.1999  0.0468
23883SOL    HW173090   1.632   0.106   1.414  2.6317 -1.2926  1.2114
23883SOL    HW273091   1.618   0.161   1.555 -2.2591  1.5516 -0.1124
23884SOL     OW73092   5.522   3.226   3.658 -0.5068  0.1339  0.1694
23884SOL    HW173093   5.488   3.193   3.575 -3.2147  1.3813  0.6580
23884SOL    HW273094   5.529   3.321   3.645  3.6007 -0.0334 -0.0541
23885SOL     OW73095   7.338   3.974   5.774  0.0282  0.0509 -0.0237
23885SOL    HW173096   7.366   3.884   5.794  1.0788  0.3224 -0.2237
23885SOL    HW273097   7.299   3.967   5.687  1.5116  0.0339 -0.7244
23886SOL     OW73098   6.396   2.800   0.277  0.3119 -0.3175  0.5567
23886SOL    HW173099   6.405   2.884   0.232  0.8746 -0.3978  0.5131
23886SOL    HW273100   6.434   2.814   0.363  0.6921 -0.6089  0.4425
23887SOL     OW73101   6.360   7.606   7.770  0.0118  0.3373 -0.1800
23887SOL    HW173102   6.286   7.642   7.721 -0.2475 -1.5660 -1.2810
23887SOL    HW273103   6.396   7.681   7.816 -0.6796  1.9390 -2.0818
23888SOL     OW73104   3.036   6.958   3.731  0.6855 -0.1474 -0.5622
23888SOL    HW173105   2.952   6.982   3.770  0.6544  0.8292 -1.1783
23888SOL    HW273106   3.018   6.879   3.679  0.0615  0.2604 -0.9738
23889SOL     OW73107   4.334   5.809  12.275 -0.0423 -0.7113 -0.4387
23889SOL    HW173108   4.295   5.882  12.323 -3.7151 -1.7195 -1.5245
23889SOL    HW273109   4.358   5.846  12.190 -2.5448 -0.7398 -1.2492
23890SOL     OW73110   0.672   5.148   5.077  0.6390 -0.4517 -0.0070
23890SOL    HW173111   0.704   5.224   5.126  2.2312 -1.4575  0.6072
23890SOL    HW273112   0.714   5.073   5.120 -0.2583 -1.6147 -1.0929
23891SOL     OW73113   6.282   1.082  11.136  0.3727  0.6501 -0.5256
23891SOL    HW173114   6.198   1.108  11.174 -0.0368  2.3408 -2.3636
23891SOL    HW273115   6.318   1.164  11.102  0.1577 -0.7145 -4.6166
23892SOL     OW73116   3.662   1.206   2.995 -0.1181  0.4406  0.0927
23892SOL    HW173117   3.652   1.199   3.090 -0.1200 -1.2723 -0.0113
23892SOL    HW273118   3.657   1.116   2.963  0.2310  0.9532 -1.5068
23893SOL     OW73119   1.733   2.739   6.648 -0.0314 -0.2757  0.0832
23893SOL    HW173120   1.646   2.779   6.645 -0.2011 -0.5800  0.7283
23893SOL    HW273121   1.793   2.813   6.659 -0.2636 -0.1212  0.3177
23894SOL     OW73122   3.976   3.847   2.778 -0.2656 -0.0749 -0.3526
23894SOL    HW173123   3.895   3.895   2.794 -0.0372  0.4217 -0.6431
23894SOL    HW273124   3.989   3.794   2.857  0.4216  1.7153  0.7969
23895SOL     OW73125   4.422   5.997   5.785  0.2080 -0.4795 -0.1388
23895SOL    HW173126   4.419   5.951   5.701 -0.9695 -1.0054  0.1722
23895SOL    HW273127   4.415   5.927   5.850  0.4284 -0.0162  0.3812
23896SOL     OW73128   4.941   5.051   8.022  0.0565  0.6678  0.8078
23896SOL    HW173129   4.991   5.011   8.093  0.6616  1.3629  0.7698
23896SOL    HW273130   4.856   5.072   8.061  0.1885  0.5239  1.1698
23897SOL     OW73131   1.690   7.778  10.670 -0.7710  0.0666  0.0197
23897SOL    HW173132   1.720   7.801  10.582 -1.2527  0.1785 -0.1201
23897SOL    HW273133   1.661   7.687  10.662 -0.6829  0.0317  0.0993
23898SOL     OW73134   1.408   7.339   3.691 -0.0082  0.4399 -0.5716
23898SOL    HW173135   1.325   7.356   3.735  1.8982  0.5804  3.4039
23898SOL    HW273136   1.439   7.426   3.664 -0.1561  0.6799  0.0046
23899SOL     OW73137   3.961   4.716  10.591 -0.5898  0.6675  0.3864
23899SOL    HW173138   3.939   4.626  10.565 -0.1895  0.3920  0.9692
23899SOL    HW273139   4.043   4.735  10.546 -1.0977  1.0536 -0.3973
23900SOL     OW73140   0.596   6.082   1.906  0.0116  0.0880 -0.1176
23900SOL    HW173141   0.686   6.061   1.931  0.3317  1.7766  0.2416
23900SOL    HW273142   0.592   6.177   1.908 -1.1636  0.1580 -2.3344
23901SOL     OW73143   2.590   7.868   0.744  0.1305 -0.7669  0.2726
23901SOL    HW173144   2.612   7.842   0.834  0.9324 -0.8918  0.0538
23901SOL    HW273145   2.578   7.785   0.698 -0.0969 -0.7049  0.2191
23902SOL     OW73146   5.737   3.223   6.058 -0.4436 -0.5470  0.0373
23902SOL    HW173147   5.785   3.266   5.987  1.1464 -1.0450  0.7641
23902SOL    HW273148   5.721   3.293   6.122 -1.9733 -0.0757 -0.8288
23903SOL     OW73149   0.158   0.325   8.538 -0.1191  0.4181  0.1884
23903SOL    HW173150   0.190   0.351   8.625 -0.6272 -1.1849  0.8925
23903SOL    HW273151   0.098   0.252   8.556  0.0137 -0.1414 -1.5387
23904SOL     OW73152   2.304   4.772  10.972 -0.1997  0.0557 -0.1924
23904SOL    HW173153   2.348   4.751  11.054 -1.0497 -0.2935  0.1800
23904SOL    HW273154   2.345   4.853  10.942  0.1462  0.1558  0.5470
23905SOL     OW73155   7.780   6.052   7.334  0.5408 -0.2266  0.3581
23905SOL    HW173156   7.693   6.036   7.299  1.3330  0.5172 -2.1637
23905SOL    HW273157   7.782   6.146   7.353  0.9284 -0.1368 -0.0929
23906SOL     OW73158   1.176   5.496   4.550 -0.1893  0.4037  0.0024
23906SOL    HW173159   1.135   5.561   4.608  0.2512 -0.3136  1.1493
23906SOL    HW273160   1.111   5.426   4.543 -0.3840  0.6486 -0.6673
23907SOL     OW73161   6.426   7.893   6.729 -0.7354  0.0367  0.4399
23907SOL    HW173162   6.333   7.876   6.720 -0.4503 -1.3818 -0.1224
23907SOL    HW273163   6.431   7.978   6.774 -2.2712 -0.3700  1.4414
23908SOL     OW73164   6.684   6.722   3.066  0.0266 -0.1696  0.6026
23908SOL    HW173165   6.673   6.719   2.971 -1.6536  0.4758  0.7361
23908SOL    HW273166   6.709   6.633   3.090 -0.0508 -0.4763 -0.3868
23909SOL     OW73167   5.952   1.067   0.227 -0.3041 -0.2770  0.3491
23909SOL    HW173168   5.992   1.146   0.262 -1.1021 -0.2450  1.2203
23909SOL    HW273169   5.895   1.036   0.297 -2.6012  0.2502 -1.1861
23910SOL     OW73170   5.733   6.992  12.222 -0.2829 -0.0148 -0.3740
23910SOL    HW173171   5.742   6.900  12.248  0.3288  0.1225 -0.0823
23910SOL    HW273172   5.745   7.041  12.304 -2.0165  0.2780 -0.2628
23911SOL     OW73173   1.841   5.984   0.400  0.6267 -0.5731  0.3122
23911SOL    HW173174   1.889   6.052   0.354  0.0487  1.5579  2.6126
23911SOL    HW273175   1.909   5.932   0.444  1.0996 -1.8840 -1.8367
23912SOL     OW73176   1.620   1.970  10.967  0.3388 -0.0668  0.7301
23912SOL    HW173177   1.569   1.969  11.048  0.0416 -0.3620  0.5397
23912SOL    HW273178   1.689   1.905  10.981 -0.8762 -1.5728  0.0089
23913SOL     OW73179   0.194   5.388   3.187 -0.2016 -0.0071 -0.3797
23913SOL    HW173180   0.249   5.315   3.157 -3.6956 -2.5779 -1.1408
23913SOL    HW273181   0.182   5.443   3.110 -0.4604 -0.6568 -0.8100
23914SOL     OW73182   7.695   0.399   6.897 -0.0437 -0.1796 -0.3966
23914SOL    HW173183   7.609   0.385   6.858 -0.3925  0.5230  0.1045
23914SOL    HW273184   7.698   0.338   6.971 -0.3081  0.1351 -0.1225
23915SOL     OW73185   3.525   7.413  10.352 -0.0138  1.3499  0.0031
23915SOL    HW173186   3.574   7.488  10.386  1.1473 -0.4813  2.6631
23915SOL    HW273187   3.591   7.357  10.312 -0.4704  0.5465  0.3543
23916SOL     OW73188   0.538   7.628   7.515 -0.2567  0.3043  0.2333
23916SOL    HW173189   0.511   7.577   7.439 -0.4052  0.6519  0.0530
23916SOL    HW273190   0.608   7.575   7.556  0.1975  0.3716 -0.4455
23917SOL     OW73191   4.264   1.354   3.958  0.1258  0.6141 -0.2991
23917SOL    HW173192   4.194   1.323   4.016 -0.2083  0.2012 -0.9120
23917SOL    HW273193   4.221   1.365   3.873 -0.1280  4.0615  0.1386
23918SOL     OW73194   0.413   1.124   9.419 -0.2761  0.3046 -0.0098
23918SOL    HW173195   0.363   1.074   9.355 -1.2216  0.1627  0.8235
23918SOL    HW273196   0.378   1.212   9.413  0.2900  0.5159 -0.3408
23919SOL     OW73197   0.413   7.266   9.527 -0.0755  0.1962  0.5256
23919SOL    HW173198   0.377   7.258   9.615 -1.3353 -1.4419 -0.1043
23919SOL    HW273199   0.483   7.202   9.524 -0.7923 -0.5730 -0.0149
23920SOL     OW73200   2.789   3.007   0.671 -0.0353 -0.2343 -0.0860
23920SOL    HW173201   2.758   3.076   0.729  0.1769 -0.3762  0.1963
23920SOL    HW273202   2.780   3.045   0.583  0.5320  0.3320  0.0925
23921SOL     OW73203   2.386   2.003   2.669 -0.0584  0.0479 -0.0354
23921SOL    HW173204   2.374   2.098   2.671  1.0745  0.1985  0.5700
23921SOL    HW273205   2.450   1.988   2.600 -1.0485 -0.3951 -0.8789
23922SOL     OW73206   4.410   2.135   6.933 -0.6066  0.2411 -0.1086
23922SOL    HW173207   4.450   2.111   6.849  0.4426 -1.2229  0.7755
23922SOL    HW273208   4.422   2.230   6.938  0.2278  0.2135 -1.1597
23923SOL     OW73209   1.731   2.817  11.377  0.2828 -0.3896  0.2448
23923SOL    HW173210   1.740   2.774  11.292  1.8223 -1.2221  0.8108
23923SOL    HW273211   1.765   2.755  11.440 -1.3366 -0.0094  1.5825
23924SOL     OW73212   6.812   2.132   5.431  0.1777  0.1533 -0.2888
23924SOL    HW173213   6.742   2.153   5.492  0.1795 -0.1531 -0.1771
23924SOL    HW273214   6.818   2.208   5.373 -0.1041  0.2679 -0.1681
23925SOL     OW73215   7.342   7.363   3.549  0.0480 -0.0118  0.9720
23925SOL    HW173216   7.356   7.276   3.512 -1.5124  0.5384 -1.1470
23925SOL    HW273217   7.420   7.413   3.525  0.2241 -0.3988  0.7327
23926SOL     OW73218   3.456   1.640  10.087 -0.0800 -0.0401  0.7220
23926SOL    HW173219   3.383   1.702  10.086  0.8318  1.0932 -1.4059
23926SOL    HW273220   3.458   1.603   9.999  2.1750  0.2942  0.5829
23927SOL     OW73221   4.869   1.385   2.437  0.0393 -0.3314 -0.3433
23927SOL    HW173222   4.868   1.335   2.519 -0.5712  0.6868  0.2906
23927SOL    HW273223   4.820   1.330   2.376 -0.1338 -0.7709  0.1754
23928SOL     OW73224   3.481   1.177   9.522  0.2678  0.2262  0.3070
23928SOL    HW173225   3.539   1.167   9.599  1.0213 -0.4830 -0.3247
23928SOL    HW273226   3.393   1.177   9.559  0.4760 -2.4675  1.0348
23929SOL     OW73227   3.570   2.366   8.961 -0.4122 -0.1936 -0.2771
23929SOL    HW173228   3.626   2.432   8.923 -1.1101 -0.4868 -1.9054
23929SOL    HW273229   3.627   2.314   9.018  0.9576 -0.4489 -1.8326
23930SOL     OW73230   1.419   7.582   5.435  0.2286 -0.4159  0.0310
23930SOL    HW173231   1.390   7.553   5.349 -0.3502  1.0235 -0.2966
23930SOL    HW273232   1.503   7.625   5.419 -0.5987  1.2322 -0.1082
23931SOL     OW73233   5.947   3.054   8.133  0.2640 -0.2949 -0.3265
23931SOL    HW173234   6.000   3.003   8.072  1.5352  0.7937 -0.1646
23931SOL    HW273235   5.857   3.045   8.100  0.5439 -2.0350 -0.6915
23932SOL     OW73236   4.559   4.615   2.077 -0.2868 -0.1856 -0.2444
23932SOL    HW173237   4.617   4.585   2.148 -2.1037 -1.1521  0.9009
23932SOL    HW273238   4.591   4.703   2.057 -0.7291  0.9063  3.0706
23933SOL     OW73239   6.435   6.011   0.768  0.5090  0.4932  0.3264
23933SOL    HW173240   6.369   6.078   0.786  2.0003  1.8538  1.0719
23933SOL    HW273241   6.438   5.958   0.848  0.9671  1.0253  0.6680
23934SOL     OW73242   7.181   4.967  11.437 -0.5107  0.0920 -0.1222
23934SOL    HW173243   7.245   5.034  11.411  0.7051 -1.8392 -2.5235
23934SOL    HW273244   7.187   4.964  11.532  1.5025  1.4141 -0.1435
23935SOL     OW73245   0.690   5.915   0.419  0.1768  0.0235  0.4187
23935SOL    HW173246   0.688   5.904   0.514 -0.5471  0.2425  0.4320
23935SOL    HW273247   0.666   5.829   0.384  1.8024 -0.4685  0.3886
23936SOL     OW73248   7.869   2.656   1.486 -0.0214 -0.1585 -0.1986
23936SOL    HW173249   7.860   2.697   1.572 -0.2508 -3.8229  1.7181
23936SOL    HW273250   7.779   2.639   1.458 -0.0177  2.2358 -1.9446
23937SOL     OW73251   2.299   3.946   8.796 -0.1111 -0.5498 -0.0252
23937SOL    HW173252   2.224   4.006   8.791  0.4348  0.0365 -2.4586
23937SOL    HW273253   2.374   4.003   8.813  0.1277 -0.8118 -0.2013
23938SOL     OW73254   6.958   2.810  11.254 -0.0959 -0.5715 -0.3168
23938SOL    HW173255   6.948   2.897  11.215  2.4887 -0.8732 -1.9134
23938SOL    HW273256   6.898   2.754  11.204 -0.0862 -0.1169 -0.8445
23939SOL     OW73257   6.541   7.498  11.088 -0.2171 -0.1332  0.0926
23939SOL    HW173258   6.637   7.502  11.087 -0.2433  1.5447  0.7383
23939SOL    HW273259   6.514   7.588  11.105 -1.9379 -0.4229 -0.9062
23940SOL     OW73260   5.891   4.201   3.070  0.1774 -0.1213 -0.0323
23940SOL    HW173261   5.879   4.154   2.987  0.4909  1.1381 -0.8135
23940SOL    HW273262   5.834   4.277   3.063 -1.1558 -0.9038  1.6813
23941SOL     OW73263   3.981   4.424   2.280  0.1915  0.2502  0.5235
23941SOL    HW173264   4.036   4.406   2.204  0.8703 -1.0309  1.2765
23941SOL    HW273265   4.036   4.476   2.339 -0.6582  2.0812 -0.2326
23942SOL     OW73266   4.984   7.654   8.356 -0.4229 -0.2400 -0.3570
23942SOL    HW173267   4.913   7.616   8.407 -2.3773  1.0491 -1.9422
23942SOL    HW273268   5.006   7.736   8.401  0.0167 -0.6083  0.0989
23943SOL     OW73269   3.438   6.728  10.598 -0.3461  0.1745 -0.1845
23943SOL    HW173270   3.533   6.730  10.609 -0.3650  0.2201 -0.0284
23943SOL    HW273271   3.413   6.640  10.624 -0.3193  0.0849 -0.4550
23944SOL     OW73272   5.648   4.659  12.130  0.5318 -0.0794  0.5550
23944SOL    HW173273   5.556   4.686  12.127 -0.0425 -1.8841 -1.4214
23944SOL    HW273274   5.651   4.590  12.196  0.1064 -1.0232 -0.3841
23945SOL     OW73275   3.064   2.604  10.864 -0.2892  0.4007 -0.0076
23945SOL    HW173276   3.005   2.673  10.894  1.3317  2.0936 -0.5745
23945SOL    HW273277   3.116   2.581  10.940  0.8829  1.6318 -0.4086
23946SOL     OW73278   5.541   2.398   5.757  0.0111  0.4281 -0.2965
23946SOL    HW173279   5.623   2.427   5.717  0.3124  0.1646  0.1291
23946SOL    HW273280   5.568   2.339   5.828 -0.5698 -0.5502 -0.8627
23947SOL     OW73281   6.076   3.195   9.587 -0.3939 -0.4121  0.0580
23947SOL    HW173282   6.101   3.240   9.668 -1.8325 -0.3560  0.4964
23947SOL    HW273283   6.028   3.118   9.617  0.8947 -1.5610 -0.7188
23948SOL     OW73284   0.274   4.605   0.734 -0.2161 -0.2020 -0.3514
23948SOL    HW173285   0.305   4.623   0.823 -0.1446  0.0927 -0.4361
23948SOL    HW273286   0.198   4.662   0.723 -0.4552 -0.5151 -0.3458
23949SOL     OW73287   6.250   2.068   2.534  0.4295  0.2763 -0.2777
23949SOL    HW173288   6.249   2.057   2.439  1.9180 -0.1312 -0.2725
23949SOL    HW273289   6.319   2.133   2.549 -0.6874  1.3258  0.4479
23950SOL     OW73290   6.989   6.511   8.073 -0.3978  0.1155  0.7252
23950SOL    HW173291   7.010   6.536   7.983  0.9469 -0.1336  0.9495
23950SOL    HW273292   7.012   6.588   8.125 -0.3819 -0.0398  0.9517
23951SOL     OW73293   4.435   3.559   8.082 -0.0354  0.3302  0.2025
23951SOL    HW173294   4.477   3.516   8.008  0.4445  0.3355  0.4711
23951SOL    HW273295   4.465   3.650   8.078 -0.6179  0.5186 -0.0438
23952SOL     OW73296   3.701   0.643   5.989 -0.3328 -0.3758  0.6445
23952SOL    HW173297   3.671   0.553   6.002 -1.1929 -0.2854 -0.5704
23952SOL    HW273298   3.790   0.644   6.026 -0.7756 -1.3782  1.8080
23953SOL     OW73299   1.069   6.726  10.566  0.2644 -0.1924 -0.2096
23953SOL    HW173300   1.122   6.753  10.642  0.0641  2.6747 -0.9931
23953SOL    HW273301   1.073   6.800  10.506 -1.1461 -1.6333 -2.2194
23954SOL     OW73302   3.501   4.624   3.072 -0.3266 -0.2549  0.1436
23954SOL    HW173303   3.414   4.645   3.037 -0.2975 -0.1155  0.1555
23954SOL    HW273304   3.502   4.661   3.160 -0.0977  0.1291 -0.0199
23955SOL     OW73305   5.557   2.883   9.761 -0.3587  0.0069 -0.1292
23955SOL    HW173306   5.633   2.829   9.741 -0.7557 -0.4123 -0.5223
23955SOL    HW273307   5.506   2.884   9.680 -0.5760  0.6125  0.0092
23956SOL     OW73308   5.126   6.959   1.944  0.0855 -0.1141  0.2035
23956SOL    HW173309   5.132   6.865   1.959  1.1915 -0.2034 -0.6376
23956SOL    HW273310   5.049   6.969   1.888  0.1881 -0.5754 -0.0315
23957SOL     OW73311   6.265   1.630   5.305 -0.4908  0.0171  0.2547
23957SOL    HW173312   6.270   1.720   5.337 -0.8008  0.6030 -1.2586
23957SOL    HW273313   6.332   1.583   5.355  0.9057  1.4839 -0.1476
23958SOL     OW73314   6.735   3.240   0.676  0.1971  0.5614 -0.2339
23958SOL    HW173315   6.649   3.235   0.634 -0.8702 -0.9278  1.9864
23958SOL    HW273316   6.765   3.330   0.658 -1.5440  0.9363 -1.5023
23959SOL     OW73317   0.011   2.654   9.940 -0.2197  0.2061  0.3305
23959SOL    HW173318   0.057   2.679   9.860  0.1520  0.0181  0.4817
23959SOL    HW273319   0.057   2.701  10.010 -0.2573  0.0187  0.4828
23960SOL     OW73320   4.152   6.753   8.974  0.0743  0.0171 -0.2077
23960SOL    HW173321   4.110   6.780   9.056 -0.3780  0.1337 -0.4751
23960SOL    HW273322   4.125   6.820   8.911  0.6367  0.0750 -0.3934
23961SOL     OW73323   0.893   3.319   0.260 -0.2881  0.1257 -0.0270
23961SOL    HW173324   0.948   3.300   0.336  0.0028 -0.1191 -0.2988
23961SOL    HW273325   0.901   3.414   0.248  1.6538 -0.1598 -1.2620
23962SOL     OW73326   5.620   6.074  10.387 -0.1868  0.3960  0.2931
23962SOL    HW173327   5.623   6.022  10.306 -1.0578  1.1340 -0.2426
23962SOL    HW273328   5.545   6.039  10.435  0.1017  0.2061  0.6006
23963SOL     OW73329   5.641   0.177   9.915 -0.2337 -0.3269 -0.0289
23963SOL    HW173330   5.600   0.113   9.856  1.1202 -0.3183 -1.0230
23963SOL    HW273331   5.587   0.174   9.994 -0.9355 -1.8023 -0.5168
23964SOL     OW73332   2.210   2.038   8.554 -0.0255 -0.0244 -0.2476
23964SOL    HW173333   2.223   2.065   8.645  1.4652  0.2461 -0.5146
23964SOL    HW273334   2.225   2.118   8.504  0.1402 -0.4025 -0.7993
23965SOL     OW73335   0.584   3.460   0.901  0.3170  0.1199 -0.3047
23965SOL    HW173336   0.593   3.470   0.806  0.6493  0.3723 -0.2475
23965SOL    HW273337   0.664   3.497   0.937 -0.0834  0.6095  0.1092
23966SOL     OW73338   7.092   3.464   7.407  0.2189 -0.1550  0.1570
23966SOL    HW173339   7.005   3.427   7.422 -0.4284  1.3620  0.2975
23966SOL    HW273340   7.092   3.487   7.314  0.1405  0.6375  0.3484
23967SOL     OW73341   4.408   5.921   9.562  0.1830 -0.1165 -0.4999
23967SOL    HW173342   4.358   5.908   9.482 -0.4613  0.3390 -0.1846
23967SOL    HW273343   4.386   5.846   9.617  0.6850 -0.4690 -0.7709
23968SOL     OW73344   5.870   3.430   2.294  0.2923  0.1576 -0.0700
23968SOL    HW173345   5.801   3.364   2.290  1.6789 -1.4281  0.9158
23968SOL    HW273346   5.886   3.454   2.203 -1.4277  0.4695 -0.3289
23969SOL     OW73347   0.804   0.734   7.876 -0.3406 -0.2983  0.3302
23969SOL    HW173348   0.728   0.792   7.874 -0.4312 -0.4195  0.2252
23969SOL    HW273349   0.789   0.676   7.951 -1.0749 -1.2855 -0.5481
23970SOL     OW73350   2.538   0.255   9.787 -0.2935  0.7502  0.2031
23970SOL    HW173351   2.567   0.343   9.810 -1.0031  1.1539 -0.4331
23970SOL    HW273352   2.592   0.197   9.841 -0.0076  1.5809  0.8164
23971SOL     OW73353   2.457   0.448  12.237 -0.0187  0.1762 -0.8370
23971SOL    HW173354   2.499   0.523  12.195  2.0263 -1.2554 -1.4945
23971SOL    HW273355   2.524   0.414  12.297 -1.7307  0.2385  1.2020
23972SOL     OW73356   1.274   6.137   9.387 -0.1065  0.4357 -0.2313
23972SOL    HW173357   1.311   6.221   9.411  1.2503 -0.4980  1.1089
23972SOL    HW273358   1.340   6.097   9.330 -0.1206 -0.2566  0.2272
23973SOL     OW73359   4.452   7.357   6.076 -0.4230  0.3262 -0.0329
23973SOL    HW173360   4.413   7.281   6.120  0.1222  1.2709  2.2373
23973SOL    HW273361   4.540   7.328   6.052 -0.1324  0.2692  1.0334
23974SOL     OW73362   2.767   6.574   9.153 -0.1139 -0.5286 -0.5806
23974SOL    HW173363   2.749   6.635   9.225  0.4998  0.4599 -1.2369
23974SOL    HW273364   2.806   6.629   9.084  0.9345 -1.7545 -1.0059
23975SOL     OW73365   2.749   0.531   1.296  0.1035 -0.3762  0.6560
23975SOL    HW173366   2.800   0.609   1.272 -1.5116  0.4840 -0.1986
23975SOL    HW273367   2.679   0.529   1.231 -0.0365 -2.4379  0.8151
23976SOL     OW73368   2.966   0.768   2.438 -0.0504  0.8344  0.2542
23976SOL    HW173369   3.051   0.754   2.396 -0.8865  0.1888 -1.3177
23976SOL    HW273370   2.926   0.681   2.441 -2.4960  1.6229 -3.2943
23977SOL     OW73371   3.397   6.716  11.323  0.0591  0.3788  0.5914
23977SOL    HW173372   3.328   6.733  11.259  0.7369 -0.1304 -0.2960
23977SOL    HW273373   3.365   6.641  11.373  0.5380 -0.7515 -0.7256
23978SOL     OW73374   4.385   5.203   2.737 -0.1277  0.1075 -0.0514
23978SOL    HW173375   4.312   5.251   2.776 -0.3207 -0.6647  0.5428
23978SOL    HW273376   4.456   5.268   2.732 -0.1211  0.2572  1.5147
23979SOL     OW73377   5.615   5.067   5.185  0.0159  0.0440 -0.0899
23979SOL    HW173378   5.613   5.018   5.102 -1.4344  1.3732 -0.8897
23979SOL    HW273379   5.678   5.138   5.169  0.4823 -0.2723  0.3105
23980SOL     OW73380   7.466   2.386   8.020 -0.0542  0.5368  0.4538
23980SOL    HW173381   7.464   2.326   8.094 -0.6424  1.5147  1.2660
23980SOL    HW273382   7.385   2.369   7.973  0.4409 -0.2632 -0.1228
23981SOL     OW73383   0.403   5.693   7.400  0.3198 -0.1759  0.0281
23981SOL    HW173384   0.324   5.651   7.367  0.6985  0.2945 -1.5378
23981SOL    HW273385   0.431   5.752   7.330 -0.5127  3.2106  2.3173
23982SOL     OW73386   6.923   2.243   4.652  0.1387 -0.1758  0.0834
23982SOL    HW173387   6.828   2.251   4.644 -0.1919 -3.3545 -0.5181
23982SOL    HW273388   6.958   2.320   4.607 -2.0922  1.6368  1.2361
23983SOL     OW73389   2.889   5.211  10.315  0.3875 -0.0763 -0.0607
23983SOL    HW173390   2.894   5.304  10.294 -2.0123  0.1837  0.3036
23983SOL    HW273391   2.822   5.204  10.382  1.6755 -1.9142  1.1469
23984SOL     OW73392   4.235   6.645   4.833 -0.4492  0.1197  0.5413
23984SOL    HW173393   4.306   6.699   4.866  0.1288  0.2574 -0.8745
23984SOL    HW273394   4.278   6.567   4.798 -1.1650 -0.6759  1.3753
23985SOL     OW73395   7.903   3.782   6.085  0.0686 -0.6448  0.4272
23985SOL    HW173396   7.913   3.768   6.179 -0.3310 -1.0759  0.4116
23985SOL    HW273397   7.979   3.738   6.046  0.4088 -0.1791  0.5687
23986SOL     OW73398   4.723   6.417   9.054  0.1960  0.3162  0.0237
23986SOL    HW173399   4.681   6.332   9.043 -0.0756  0.2786  1.2598
23986SOL    HW273400   4.657   6.472   9.097 -0.5953  1.9833 -2.9522
23987SOL     OW73401   4.547   0.042   7.811 -0.2544  0.9152  0.1000
23987SOL    HW173402   4.580  -0.010   7.885 -1.9148 -0.7170 -0.2349
23987SOL    HW273403   4.552   0.132   7.841 -0.7581  0.3173  2.1831
23988SOL     OW73404   5.356   2.609  11.379 -0.0420  0.2862 -0.5491
23988SOL    HW173405   5.383   2.525  11.341  0.8782 -0.1494  0.9775
23988SOL    HW273406   5.415   2.673  11.342  0.9878 -0.1661  0.2534
23989SOL     OW73407   2.165   6.874   3.612  0.1582 -0.4151  0.0962
23989SOL    HW173408   2.255   6.870   3.645 -0.4070 -0.5480  1.6916
23989SOL    HW273409   2.113   6.832   3.680 -1.1532 -0.1149 -0.6954
23990SOL     OW73410   2.701   3.799   6.450 -0.4378 -0.5727  0.0949
23990SOL    HW173411   2.733   3.720   6.406  0.5926 -0.4407  0.5726
23990SOL    HW273412   2.776   3.830   6.501 -1.1295  0.1655  0.6885
23991SOL     OW73413   2.249   3.908   6.760 -0.0041  0.0632 -0.3580
23991SOL    HW173414   2.162   3.875   6.739 -0.1927 -0.0032  0.5011
23991SOL    HW273415   2.300   3.831   6.780  0.2026  0.1217 -0.6447
23992SOL     OW73416   1.721   2.738   3.254  0.0445 -0.1445 -0.8212
23992SOL    HW173417   1.784   2.708   3.319 -0.4510 -0.4958 -0.4960
23992SOL    HW273418   1.739   2.687   3.175 -0.7565 -1.2786 -0.2915
23993SOL     OW73419   0.859   1.891  10.334  0.4562 -0.2119 -1.2627
23993SOL    HW173420   0.933   1.949  10.317  0.7988  0.2718  1.4034
23993SOL    HW273421   0.790   1.949  10.366  0.5938 -1.1341  0.8556
23994SOL     OW73422   2.473   1.335   5.223 -0.2507 -0.2423 -0.5757
23994SOL    HW173423   2.501   1.244   5.231 -0.7605 -0.5554 -2.0039
23994SOL    HW273424   2.475   1.369   5.312  1.7888 -1.0858 -0.2434
23995SOL     OW73425   4.703   7.839   1.174  0.0409 -0.0228  0.1567
23995SOL    HW173426   4.750   7.771   1.221  3.6678  0.8148 -1.8841
23995SOL    HW273427   4.686   7.907   1.239  2.2228 -0.1581  0.9376
23996SOL     OW73428   7.614   4.767  11.963 -0.3398 -0.2327 -0.7383
23996SOL    HW173429   7.623   4.774  12.058 -2.4286 -0.4600 -0.4624
23996SOL    HW273430   7.646   4.679  11.942 -0.8626 -0.5849 -0.0815
23997SOL     OW73431   3.832   3.527   8.185  0.8627 -0.5658 -0.0200
23997SOL    HW173432   3.909   3.528   8.243  0.2295  0.3610  0.8416
23997SOL    HW273433   3.791   3.612   8.199 -1.2765 -1.6718  0.8005
23998SOL     OW73434   4.822   2.787  10.768  0.0722 -0.0470  0.2274
23998SOL    HW173435   4.870   2.708  10.792 -1.2843 -0.5415  1.4483
23998SOL    HW273436   4.865   2.857  10.817  0.6041 -0.1921 -0.0210
23999SOL     OW73437   3.461   0.482   0.605 -0.2072 -0.5801 -0.2343
23999SOL    HW173438   3.552   0.457   0.617  0.1949  1.2707  0.9723
23999SOL    HW273439   3.415   0.443   0.680  0.3733  1.8938  1.5013
24000SOL     OW73440   1.098   7.888   5.497  0.3495 -0.0924  0.0007
24000SOL    HW173441   1.044   7.812   5.520  2.8313 -1.4520  1.8387
24000SOL    HW273442   1.164   7.853   5.437  0.9259  0.8731  0.0493
24001SOL     OW73443   7.434   1.288   6.386  0.2991 -0.3467  0.0846
24001SOL    HW173444   7.446   1.195   6.370  1.1208 -0.0018 -1.5543
24001SOL    HW273445   7.501   1.310   6.451  1.2756 -0.5949 -0.8071
24002SOL     OW73446   5.744   5.067   6.458  0.0974  0.4399  0.1457
24002SOL    HW173447   5.802   5.028   6.392  0.0281 -0.7874  0.7715
24002SOL    HW273448   5.688   4.994   6.487 -1.1865  1.4035  0.1673
24003SOL     OW73449   2.561   1.557   2.560 -0.4852 -0.2043 -0.1419
24003SOL    HW173450   2.588   1.623   2.624 -1.4756  1.0278 -0.9755
24003SOL    HW273451   2.644   1.522   2.526  0.0448  0.3014  0.6005
24004SOL     OW73452   1.872   3.271   5.305 -0.2868  0.1529 -0.0023
24004SOL    HW173453   1.852   3.317   5.224  1.3019  0.9166 -0.0017
24004SOL    HW273454   1.934   3.203   5.280 -0.8215 -0.4953  0.3800
24005SOL     OW73455   4.955   6.796   1.566 -0.1564  0.2641 -0.3534
24005SOL    HW173456   4.905   6.791   1.485  0.7006 -0.0077 -0.8858
24005SOL    HW273457   5.035   6.747   1.547 -0.4600 -0.8329  1.0572
24006SOL     OW73458   3.837   7.215   6.736 -0.3410  0.3634 -0.2370
24006SOL    HW173459   3.820   7.200   6.829 -2.6523 -0.9615 -0.7903
24006SOL    HW273460   3.881   7.136   6.706  0.4276  0.8009 -0.2903
24007SOL     OW73461   0.739   1.698  11.472  0.6520 -0.9647  0.0222
24007SOL    HW173462   0.660   1.731  11.429  1.0221  0.0072  0.0659
24007SOL    HW273463   0.763   1.620  11.423 -1.0683 -2.0349  0.8008
24008SOL     OW73464   0.892   2.480   4.959 -0.1315 -0.2333 -0.1771
24008SOL    HW173465   0.834   2.452   4.888  2.2691 -1.2580 -1.8765
24008SOL    HW273466   0.963   2.526   4.914 -0.2929  2.3792  1.9488
24009SOL     OW73467   7.669   0.394   3.479 -0.1639  0.3831  0.1254
24009SOL    HW173468   7.618   0.393   3.560 -0.2550  2.0019  0.1272
24009SOL    HW273469   7.604   0.408   3.411  0.0782  0.5024 -0.0791
24010SOL     OW73470   4.356   7.259   0.125 -0.1304  0.5914 -0.2411
24010SOL    HW173471   4.416   7.270   0.199 -0.7677  0.4606  0.3005
24010SOL    HW273472   4.273   7.232   0.165  0.0813 -1.5979 -1.1388
24011SOL     OW73473   1.673   4.704   8.657 -0.0857  0.5801  0.2347
24011SOL    HW173474   1.764   4.676   8.661 -0.3796 -0.2734  1.7915
24011SOL    HW273475   1.647   4.689   8.566  1.0424 -0.1276  0.0108
24012SOL     OW73476   0.967   5.148   1.734 -0.1753  0.2840  0.5048
24012SOL    HW173477   1.048   5.187   1.703  0.1282  0.1135  1.0757
24012SOL    HW273478   0.899   5.213   1.714  0.1874  0.6834  0.5773
24013SOL     OW73479   2.705   3.574   6.252 -0.8055  0.3032 -0.5652
24013SOL    HW173480   2.753   3.516   6.192 -0.6007  0.1927 -0.2955
24013SOL    HW273481   2.722   3.538   6.339 -0.0659  1.1919 -0.3226
24014SOL     OW73482   6.762   5.810  11.588  0.7643  0.3089 -0.0386
24014SOL    HW173483   6.808   5.859  11.520  2.6739  0.1589  1.0678
24014SOL    HW273484   6.779   5.718  11.568  0.5251  0.2293  0.1157
24015SOL     OW73485   2.201   1.055   5.630 -0.3782 -0.5166  0.0777
24015SOL    HW173486   2.186   0.962   5.616 -0.8972 -0.6636  1.5042
24015SOL    HW273487   2.268   1.059   5.698  1.1229  0.1773 -1.3482
24016SOL     OW73488   4.040   0.504  11.243  0.2116 -0.4352 -0.0821
24016SOL    HW173489   3.959   0.462  11.214  1.1403 -1.8691 -0.7438
24016SOL    HW273490   4.044   0.487  11.337 -2.2187  3.1999  0.8964
24017SOL     OW73491   6.603   3.553   7.103  0.5731  0.2971  0.2616
24017SOL    HW173492   6.653   3.501   7.041  1.2217  0.6888  0.4508
24017SOL    HW273493   6.584   3.634   7.057 -0.4468 -0.0993 -0.0367
24018SOL     OW73494   2.525   1.897   4.540  0.3449 -0.3722 -0.0939
24018SOL    HW173495   2.481   1.845   4.473 -0.1343 -0.4205  0.2498
24018SOL    HW273496   2.461   1.964   4.563 -0.0755 -1.2313  1.3544
24019SOL     OW73497   5.479   6.486   0.561 -0.2782  0.3961  0.5180
24019SOL    HW173498   5.524   6.553   0.611 -0.3747 -0.6845  2.1187
24019SOL    HW273499   5.533   6.408   0.571 -0.3319  0.1191 -1.0410
24020SOL     OW73500   1.228   3.896   4.636  0.3794  0.1532  0.0963
24020SOL    HW173501   1.308   3.897   4.688  0.3097 -1.5378  0.2923
24020SOL    HW273502   1.247   3.952   4.561  2.0075 -0.7339 -0.2068
24021SOL     OW73503   0.450   4.479   6.470 -0.2161  0.0705 -0.5151
24021SOL    HW173504   0.387   4.440   6.531  0.2828 -0.6790 -0.4614
24021SOL    HW273505   0.399   4.543   6.421 -0.2620  2.1135  1.9579
24022SOL     OW73506   3.312   4.392   3.608  0.4750 -0.4308  0.2491
24022SOL    HW173507   3.316   4.301   3.578  1.1397 -0.3831  0.1732
24022SOL    HW273508   3.331   4.386   3.702  0.8653 -0.3402  0.1780
24023SOL     OW73509   6.778   5.321   0.541 -0.2731 -0.3659 -0.0772
24023SOL    HW173510   6.697   5.362   0.513 -0.4254 -0.1834  0.6086
24023SOL    HW273511   6.807   5.372   0.617  0.5441 -0.3581 -0.3798
24024SOL     OW73512   4.132   0.365  10.759  0.2356  0.4895  0.7612
24024SOL    HW173513   4.163   0.390  10.671  1.8346  0.9144  1.4153
24024SOL    HW273514   4.052   0.417  10.771 -0.5901 -0.3184 -0.8151
24025SOL     OW73515   2.175   3.577   8.433  0.6709  0.1601  0.0277
24025SOL    HW173516   2.270   3.583   8.423  0.6642  0.5234  0.1590
24025SOL    HW273517   2.152   3.654   8.486  0.4912 -0.7466  1.3091
24026SOL     OW73518   4.852   1.236   6.766 -0.6025  0.4344  0.2950
24026SOL    HW173519   4.894   1.320   6.746 -1.7043  1.1498  0.8579
24026SOL    HW273520   4.839   1.195   6.680  0.4138  0.5988  0.0546
24027SOL     OW73521   5.474   4.195  11.919  0.2323  0.1302 -0.3101
24027SOL    HW173522   5.417   4.272  11.913  1.3665  1.1851  1.3539
24027SOL    HW273523   5.561   4.229  11.898  0.9350 -0.4144  1.5325
24028SOL     OW73524   7.398   6.780   7.981 -0.0471  0.5024 -0.1850
24028SOL    HW173525   7.384   6.688   8.003 -0.2319  0.6729  0.4401
24028SOL    HW273526   7.360   6.791   7.893 -2.1543  0.5083  0.6634
24029SOL     OW73527   5.360   4.730   9.361  0.2064 -0.1469 -0.1116
24029SOL    HW173528   5.317   4.811   9.334  0.0377 -0.3702 -0.5262
24029SOL    HW273529   5.289   4.676   9.396  0.4945  0.3202  1.2423
24030SOL     OW73530   2.467   0.812   9.071  0.1610  0.4321  0.3872
24030SOL    HW173531   2.411   0.862   9.130  0.8503  0.7912  0.7470
24030SOL    HW273532   2.406   0.771   9.009 -0.5653  0.0723  1.3193
24031SOL     OW73533   6.051   5.951   1.434 -0.4198 -0.0007  0.0809
24031SOL    HW173534   6.078   5.860   1.423 -0.4683 -0.0191  0.1140
24031SOL    HW273535   6.132   5.999   1.450 -0.2074  0.2044 -1.4999
24032SOL     OW73536   5.413   3.837   4.528 -0.4104  0.4715  0.9726
24032SOL    HW173537   5.348   3.863   4.593 -0.9951 -2.2383  1.6049
24032SOL    HW273538   5.363   3.824   4.447  0.0689  2.2612  0.3236
24033SOL     OW73539   3.900   5.516   2.815 -0.0904  0.2235 -0.4313
24033SOL    HW173540   3.946   5.439   2.782  0.9919  0.2247  0.9709
24033SOL    HW273541   3.846   5.545   2.742  0.0110 -1.4448 -1.2192
24034SOL     OW73542   6.165   6.477   0.039 -0.4269 -0.2371 -0.5895
24034SOL    HW173543   6.137   6.557   0.082 -1.4749 -1.2091  0.6048
24034SOL    HW273544   6.201   6.506  -0.045 -0.2917  1.5101  0.0319
24035SOL     OW73545   0.778   7.089   2.330  0.2617  0.2420  0.5478
24035SOL    HW173546   0.846   7.148   2.299  1.1472 -1.3121 -0.6556
24035SOL    HW273547   0.722   7.074   2.254  0.9738 -1.6520  0.3494
24036SOL     OW73548   0.660   2.437   2.754 -0.0889 -0.6878 -0.0814
24036SOL    HW173549   0.670   2.345   2.728 -0.8740 -1.7908  3.1170
24036SOL    HW273550   0.736   2.454   2.810 -0.2346  0.4709 -0.2242
24037SOL     OW73551   0.838   0.560   0.735  0.1392  0.1708  0.0803
24037SOL    HW173552   0.933   0.549   0.738  0.2005  0.4474 -0.5559
24037SOL    HW273553   0.803   0.476   0.762  0.5691 -0.0278  0.0267
24038SOL     OW73554   2.785   5.452  11.139 -0.5817 -0.4343  0.9445
24038SOL    HW173555   2.844   5.376  11.146  0.2444 -0.1796 -1.8500
24038SOL    HW273556   2.809   5.508  11.212  2.4232 -0.5637  0.2134
24039SOL     OW73557   3.695   5.355   3.240  0.1114 -0.5544 -0.2889
24039SOL    HW173558   3.617   5.409   3.244 -0.9156 -1.9648 -0.3735
24039SOL    HW273559   3.733   5.361   3.328 -1.4228 -1.6954  0.4883
24040SOL     OW73560   5.329   0.820   1.081  0.1558 -0.3205 -0.2246
24040SOL    HW173561   5.376   0.838   0.999  0.2938 -0.2279 -0.1262
24040SOL    HW273562   5.382   0.862   1.148 -1.4994  2.2899 -0.3916
24041SOL     OW73563   5.745   0.425   1.168 -0.4777  0.1424  0.0653
24041SOL    HW173564   5.712   0.484   1.236 -0.1577  2.3847 -1.6145
24041SOL    HW273565   5.680   0.432   1.097  1.1467  0.9395 -1.4027
24042SOL     OW73566   7.334   4.273  10.650 -0.4168  0.2038  0.2684
24042SOL    HW173567   7.408   4.255  10.592 -0.9426 -0.3694 -0.2379
24042SOL    HW273568   7.335   4.368  10.660  1.2656  0.0954  1.4586
24043SOL     OW73569   3.648   3.310   1.004  0.3912 -0.2819 -0.1255
24043SOL    HW173570   3.664   3.216   1.000  1.5373 -0.1250  0.3330
24043SOL    HW273571   3.683   3.336   1.089  0.3290  0.6055 -0.3632
24044SOL     OW73572   6.784   6.691   8.518 -0.2408 -0.1716 -0.1861
24044SOL    HW173573   6.734   6.616   8.484 -0.3298  0.4768 -1.5603
24044SOL    HW273574   6.748   6.707   8.605 -0.6746 -1.2990 -0.1388
24045SOL     OW73575   7.018   5.656   6.042 -0.5626 -0.2989 -0.2190
24045SOL    HW173576   6.960   5.609   6.102 -0.8061  0.2441 -0.0241
24045SOL    HW273577   7.097   5.602   6.038 -1.2654 -1.3193 -0.8876
24046SOL     OW73578   4.539   0.570   3.217  0.4475 -0.3065  0.2344
24046SOL    HW173579   4.479   0.640   3.189  0.2208 -0.5567  0.0976
24046SOL    HW273580   4.561   0.593   3.307  0.9398  0.3362 -0.0448
24047SOL     OW73581   4.990   1.334   9.884  0.1641  0.3112  0.0639
24047SOL    HW173582   5.021   1.337   9.793 -1.3508 -1.5704 -0.5978
24047SOL    HW273583   5.053   1.277   9.929 -1.0447 -1.7801 -0.7606
24048SOL     OW73584   5.140   1.199   7.557 -0.1863 -0.2134 -0.1901
24048SOL    HW173585   5.175   1.271   7.505  1.3124  0.0990  1.1705
24048SOL    HW273586   5.160   1.223   7.647 -0.0389 -2.1340  0.3235
24049SOL     OW73587   2.412   0.050   3.050 -0.3932 -0.4238 -0.1573
24049SOL    HW173588   2.393  -0.003   3.127  0.7672  1.3277  1.4357
24049SOL    HW273589   2.491   0.011   3.012  1.0711  0.6489  1.6040
24050SOL     OW73590   5.356   6.205  12.373  0.4503  0.2573 -0.2772
24050SOL    HW173591   5.376   6.113  12.389  1.9924  0.1603 -2.3027
24050SOL    HW273592   5.313   6.205  12.287 -0.0920  1.3736 -0.0154
24051SOL     OW73593   4.559   2.521   2.745 -0.0175  0.0739  0.1389
24051SOL    HW173594   4.551   2.436   2.702 -0.1169 -0.4312  1.1147
24051SOL    HW273595   4.507   2.580   2.691  1.2064 -0.1475 -1.3553
24052SOL     OW73596   0.555   2.911   1.168  0.3060  0.6208  0.2097
24052SOL    HW173597   0.492   2.850   1.206  0.0204  1.4570  1.1262
24052SOL    HW273598   0.634   2.900   1.221 -0.2568  2.1593  1.4278
24053SOL     OW73599   5.155   3.616   5.817  0.3175  0.0067  0.5146
24053SOL    HW173600   5.102   3.692   5.796  1.2721  0.1236 -1.8372
24053SOL    HW273601   5.093   3.543   5.818 -0.1499  0.3618 -0.6133
24054SOL     OW73602   2.950   0.454   1.651  0.0726 -0.5478  0.0330
24054SOL    HW173603   2.882   0.387   1.655 -1.4441  0.7669 -1.9129
24054SOL    HW273604   3.022   0.412   1.604 -0.3044 -1.2409  0.0647
24055SOL     OW73605   1.271   2.142   1.150  0.4101  0.4105 -0.2959
24055SOL    HW173606   1.361   2.161   1.176  0.5207 -0.2315 -0.1994
24055SOL    HW273607   1.271   2.154   1.055  1.6487 -3.3863 -0.9680
24056SOL     OW73608   2.690   3.011   4.284 -0.2931 -0.5825  0.3990
24056SOL    HW173609   2.604   3.032   4.321 -0.2084 -0.2657  0.4228
24056SOL    HW273610   2.673   2.941   4.222 -0.6743 -0.0566 -0.0958
24057SOL     OW73611   3.081   2.677   7.128  0.1365  0.1448  0.7074
24057SOL    HW173612   3.032   2.698   7.048  1.2157 -1.1606 -0.3486
24057SOL    HW273613   3.040   2.597   7.161 -0.6274  0.9580  1.7685
24058SOL     OW73614   5.883   6.809   5.483  0.1740  0.0338 -0.3231
24058SOL    HW173615   5.933   6.808   5.401  0.1437  0.9548 -0.3722
24058SOL    HW273616   5.798   6.771   5.459  0.2857 -0.0200 -0.6445
24059SOL     OW73617   5.226   5.710   3.367  0.3369  0.2270  0.5157
24059SOL    HW173618   5.135   5.721   3.339  0.0872 -0.7366  0.9259
24059SOL    HW273619   5.272   5.785   3.328 -0.6438  0.7783  0.3862
24060SOL     OW73620   4.216   0.206   9.075  0.2430 -0.1329  0.5124
24060SOL    HW173621   4.132   0.162   9.088  0.2839 -0.5399 -0.5251
24060SOL    HW273622   4.194   0.284   9.023  0.5559 -0.4736 -0.1419
24061SOL     OW73623   5.376   5.010   4.944 -0.6145  0.2124  0.3455
24061SOL    HW173624   5.362   5.031   5.037  0.7003  1.1316  0.3650
24061SOL    HW273625   5.306   5.057   4.899  0.1546  1.7756  0.7012
24062SOL     OW73626   1.611   7.208   2.693  0.8566  0.0408  0.4287
24062SOL    HW173627   1.610   7.203   2.788  0.2033  0.8120  0.4718
24062SOL    HW273628   1.703   7.225   2.671  0.6092  2.5287  1.0889
24063SOL     OW73629   4.063   1.649   6.390 -0.5117  0.4686  0.3827
24063SOL    HW173630   4.067   1.595   6.470  0.9361 -1.0502 -0.6425
24063SOL    HW273631   4.135   1.711   6.401 -2.0892  2.2188  1.4966
24064SOL     OW73632   1.960   3.270   3.372 -0.4250 -0.7483 -0.0558
24064SOL    HW173633   1.972   3.332   3.300 -1.1952 -0.0525  0.3909
24064SOL    HW273634   2.041   3.278   3.423 -0.0069 -1.0182 -0.6580
24065SOL     OW73635   2.284   4.733   4.116  0.1689  0.5048  0.4053
24065SOL    HW173636   2.197   4.771   4.106 -0.5521 -1.3625 -0.8995
24065SOL    HW273637   2.294   4.721   4.211 -0.2916  2.1996  0.7082
24066SOL     OW73638   7.041   4.392   4.192 -0.1709 -0.3726  0.1721
24066SOL    HW173639   7.133   4.395   4.164 -0.0394 -2.6089  0.1857
24066SOL    HW273640   7.045   4.405   4.287 -0.3520  4.0130 -0.2117
24067SOL     OW73641   2.130   3.038   1.449  0.0955  0.6623  0.1983
24067SOL    HW173642   2.124   3.043   1.354 -0.1328 -0.6906  0.1312
24067SOL    HW273643   2.180   3.117   1.474 -1.0420  1.7702 -0.8997
24068SOL     OW73644   6.073   1.245   3.786  0.0471 -0.4502 -0.2647
24068SOL    HW173645   6.078   1.331   3.829  1.2511 -0.4198 -0.4074
24068SOL    HW273646   5.988   1.244   3.743 -0.6075  0.0778  0.9597
24069SOL     OW73647   5.980   0.919  11.430 -0.0333  0.0652  0.1993
24069SOL    HW173648   6.042   0.855  11.395  1.3806  2.4279 -1.9178
24069SOL    HW273649   6.007   0.931  11.521 -0.4862 -2.3724  0.7496
24070SOL     OW73650   6.472   6.970   5.022 -0.2893  0.1690  0.2602
24070SOL    HW173651   6.378   6.982   5.010 -0.6736 -1.2546  1.5106
24070SOL    HW273652   6.493   7.020   5.101 -0.4146 -1.0457  1.0958
24071SOL     OW73653   1.453   1.046   3.460 -0.3311 -0.0160 -0.2358
24071SOL    HW173654   1.413   1.063   3.375  0.0218 -0.6067 -0.5228
24071SOL    HW273655   1.389   0.990   3.505 -1.7187  2.3208  0.8935
24072SOL     OW73656   0.494   6.715   5.519  0.0970 -0.0895 -0.3198
24072SOL    HW173657   0.486   6.621   5.502 -2.8522  0.0885 -0.4726
24072SOL    HW273658   0.546   6.748   5.446 -1.9072 -1.1613 -2.3760
24073SOL     OW73659   2.604   1.595  10.913  0.3552 -0.4443  0.1216
24073SOL    HW173660   2.698   1.605  10.929  0.4071  0.8992 -0.7877
24073SOL    HW273661   2.597   1.593  10.817 -0.6454  1.0602  0.1234
24074SOL     OW73662   7.877   6.469   1.362  0.0114 -0.1730  0.2274
24074SOL    HW173663   7.851   6.486   1.453  1.7573  1.1701  0.5210
24074SOL    HW273664   7.960   6.421   1.369  1.4976  2.1427 -0.5950
24075SOL     OW73665   0.162   7.369   1.151  0.5663 -0.3224  0.2770
24075SOL    HW173666   0.234   7.430   1.169 -2.6326  3.2124  2.6709
24075SOL    HW273667   0.124   7.399   1.069  0.6664 -1.0274 -0.0396
24076SOL     OW73668   0.103   0.360   4.597 -0.3948 -0.1858  0.5865
24076SOL    HW173669   0.084   0.445   4.558 -0.5211 -0.4283  0.1033
24076SOL    HW273670   0.134   0.306   4.523 -0.8258 -0.7158  0.7862
24077SOL     OW73671   3.508   2.586  10.133 -0.2317 -0.1090  0.4692
24077SOL    HW173672   3.553   2.636  10.201  0.9002 -0.4115 -0.0313
24077SOL    HW273673   3.509   2.643  10.056  1.5533 -1.0491 -0.2671
24078SOL     OW73674   3.378   4.015   6.505  0.1299  0.1814  0.0138
24078SOL    HW173675   3.284   4.001   6.518  0.4897 -1.0026  1.7067
24078SOL    HW273676   3.383   4.089   6.444 -1.9191 -1.5626 -2.5442
24079SOL     OW73677   6.709   1.827  11.271 -0.3850  0.5469  0.2608
24079SOL    HW173678   6.712   1.911  11.317 -1.8911  0.7438  0.0420
24079SOL    HW273679   6.790   1.783  11.296 -0.6057  1.1306  2.1577
24080SOL     OW73680   1.712   1.975   8.525 -0.0594  0.1975  0.3300
24080SOL    HW173681   1.800   1.989   8.490 -0.4870  0.4051 -0.6941
24080SOL    HW273682   1.719   1.895   8.577  0.9387  0.7081  1.0217
24081SOL     OW73683   6.153   7.880   6.749 -0.3304 -0.3596  0.1462
24081SOL    HW173684   6.129   7.914   6.835 -2.1723 -1.0966 -0.0357
24081SOL    HW273685   6.081   7.906   6.692  0.4177 -0.6836 -0.9709
24082SOL     OW73686   2.809   5.404   1.402 -0.5951 -0.4738 -0.1255
24082SOL    HW173687   2.731   5.454   1.377  0.7513  0.9166 -1.9302
24082SOL    HW273688   2.849   5.379   1.318  0.8361 -1.2152  0.7329
24083SOL     OW73689   0.277   2.732   9.874 -0.4114  0.2357  0.5241
24083SOL    HW173690   0.332   2.707   9.801  3.5588  0.3137  3.1846
24083SOL    HW273691   0.273   2.827   9.871 -1.8231  0.1821 -0.4989
24084SOL     OW73692   1.514   7.375   5.208  0.5323 -0.4452  0.1833
24084SOL    HW173693   1.545   7.462   5.180  0.8552 -0.0595  1.6514
24084SOL    HW273694   1.584   7.342   5.264  0.5505 -1.8082 -0.6235
24085SOL     OW73695   1.515   0.949   2.188 -0.1770 -0.0344  0.3280
24085SOL    HW173696   1.487   1.003   2.262 -2.6413  2.8406 -2.4328
24085SOL    HW273697   1.434   0.923   2.145  1.1629 -0.9578 -1.7815
24086SOL     OW73698   7.854   5.566   9.020  0.1414  0.0057 -0.3081
24086SOL    HW173699   7.820   5.478   9.004  0.9542 -0.4516  0.4334
24086SOL    HW273700   7.888   5.563   9.109  0.6939  0.9164 -0.4758
24087SOL     OW73701   6.451   0.545   6.798 -0.0697  0.1307  0.1082
24087SOL    HW173702   6.536   0.527   6.840  0.6927 -0.2621 -1.5221
24087SOL    HW273703   6.386   0.511   6.860  1.0612 -1.6183  0.4204
24088SOL     OW73704   6.215   5.715   2.452 -0.1056 -0.3637  0.1671
24088SOL    HW173705   6.270   5.684   2.380  0.5358 -0.3505  0.6456
24088SOL    HW273706   6.216   5.810   2.444 -0.5706 -0.3902 -0.2001
24089SOL     OW73707   5.889   6.340  11.884 -0.0964  0.7676  0.7180
24089SOL    HW173708   5.822   6.380  11.827  0.9073  1.0137 -0.3351
24089SOL    HW273709   5.954   6.306  11.823 -0.3626 -1.5631  1.6150
24090SOL     OW73710   3.338   0.376  10.730  0.5849  0.2868  0.0826
24090SOL    HW173711   3.380   0.293  10.751  0.1030 -0.4681 -1.7581
24090SOL    HW273712   3.389   0.412  10.658  0.2229  1.1428  0.2322
24091SOL     OW73713   2.411   2.056  11.389  0.3864  0.3474  0.7827
24091SOL    HW173714   2.347   2.087  11.453  0.0617  2.0456 -0.3096
24091SOL    HW273715   2.366   2.058  11.305  1.1012 -0.9183  0.3357
24092SOL     OW73716   5.125   6.186   0.178 -0.0178 -0.1706 -0.0838
24092SOL    HW173717   5.162   6.194   0.266  1.0091  0.0452 -0.5224
24092SOL    HW273718   5.190   6.227   0.121 -0.3020 -1.0113 -1.0348
24093SOL     OW73719   1.581   6.920  11.918  0.6226 -0.2745 -0.0805
24093SOL    HW173720   1.608   6.829  11.906  1.2745 -0.0915 -0.0429
24093SOL    HW273721   1.604   6.940  12.009  2.6685  0.6264 -0.7327
24094SOL     OW73722   4.242   5.192   8.816 -0.9149 -0.2831 -0.0747
24094SOL    HW173723   4.153   5.174   8.784 -0.5492 -2.0723 -0.2081
24094SOL    HW273724   4.298   5.172   8.741 -0.2051 -2.3092  0.9189
24095SOL     OW73725   7.639   0.697   8.500 -0.1998 -0.4666 -0.2249
24095SOL    HW173726   7.700   0.710   8.428 -2.1424 -0.4868 -1.9605
24095SOL    HW273727   7.603   0.783   8.518 -0.1868 -0.5684  0.3194
24096SOL     OW73728   7.627   4.569   3.539 -0.1625  0.1737  0.0127
24096SOL    HW173729   7.532   4.557   3.546  0.1697 -1.8472  2.3011
24096SOL    HW273730   7.649   4.624   3.615  0.7174 -1.2930  0.8575
24097SOL     OW73731   4.527   6.094   3.513  0.4716  0.2160 -0.0709
24097SOL    HW173732   4.447   6.059   3.552 -0.2787  1.1366 -0.7177
24097SOL    HW273733   4.585   6.111   3.587 -0.0208 -0.2420  0.4286
24098SOL     OW73734   3.133   1.468  10.160  0.1281  0.0487  0.4430
24098SOL    HW173735   3.096   1.540  10.110  1.8885  1.9831  1.7936
24098SOL    HW273736   3.100   1.481  10.249 -0.3914 -1.4937  0.5208
24099SOL     OW73737   0.752   5.725   3.976 -0.2090  0.1852 -0.0343
24099SOL    HW173738   0.688   5.777   3.928  0.4535  0.7612 -0.3037
24099SOL    HW273739   0.769   5.774   4.056  0.8624  0.7069 -0.5606
24100SOL     OW73740   7.843   7.773   5.377  0.0324 -0.1486 -0.1482
24100SOL    HW173741   7.841   7.824   5.295 -0.3005  0.0164 -0.0359
24100SOL    HW273742   7.807   7.832   5.443 -1.2391 -0.8535 -0.1904
24101SOL     OW73743   7.206   2.821  10.342  0.1958  0.3528 -0.0705
24101SOL    HW173744   7.207   2.758  10.415 -1.4722 -1.4495 -1.4890
24101SOL    HW273745   7.131   2.878  10.361 -0.8723 -0.7540 -0.8147
24102SOL     OW73746   1.375   5.044   1.616 -0.4036 -0.0932 -0.0379
24102SOL    HW173747   1.457   5.074   1.578 -0.3498  0.0243  0.1676
24102SOL    HW273748   1.343   4.977   1.556 -0.6432  0.5409 -0.6454
24103SOL     OW73749   7.377   3.832   9.023 -0.5236 -0.0892  0.5520
24103SOL    HW173750   7.436   3.879   9.083  1.1637 -1.1593 -0.1840
24103SOL    HW273751   7.364   3.892   8.950 -1.3909  0.6403  1.2819
24104SOL     OW73752   6.727   3.872   3.071  0.2662  0.7447  0.1699
24104SOL    HW173753   6.749   3.906   2.984  0.5678  0.9439  0.3183
24104SOL    HW273754   6.740   3.947   3.130  1.6529  0.1985  0.6010
24105SOL     OW73755   2.968   6.003  10.052 -0.2266  0.0522  1.0955
24105SOL    HW173756   2.960   5.910  10.029 -0.3101  0.4180 -0.4414
24105SOL    HW273757   2.937   6.050   9.975 -1.6515  1.3763  2.4072
24106SOL     OW73758   3.756   4.825  10.452  0.2722  0.0969  0.0521
24106SOL    HW173759   3.822   4.786  10.509 -0.0348  1.8741  1.7581
24106SOL    HW273760   3.776   4.919  10.452  0.2208  0.2005 -2.8205
24107SOL     OW73761   3.036   0.289   3.617  0.7465  0.1084  0.0025
24107SOL    HW173762   3.096   0.232   3.569 -0.5103 -0.8460 -0.4804
24107SOL    HW273763   2.952   0.278   3.573 -0.1578  0.1834  1.6507
24108SOL     OW73764   4.786   4.957   1.725  0.4786 -0.3981  0.4326
24108SOL    HW173765   4.878   4.933   1.724  1.1191  1.8269  0.3719
24108SOL    HW273766   4.741   4.887   1.678  2.2398 -1.1001 -0.2526
24109SOL     OW73767   7.636   5.090   0.288  0.2738 -0.4687  0.1940
24109SOL    HW173768   7.668   5.005   0.257 -0.8250 -0.9542  0.3228
24109SOL    HW273769   7.568   5.067   0.351 -1.4798  0.4708 -1.2527
24110SOL     OW73770   6.887   1.313   1.955  0.5730  0.1274  0.4036
24110SOL    HW173771   6.826   1.372   1.911  1.9786  1.0412 -0.3915
24110SOL    HW273772   6.957   1.298   1.891  0.6163 -1.8802  0.8280
24111SOL     OW73773   6.827   2.143   0.685  0.1468 -0.0379  0.0820
24111SOL    HW173774   6.842   2.168   0.776  0.9800  0.0601 -0.0748
24111SOL    HW273775   6.732   2.129   0.680 -0.0943  1.1610  0.6672
24112SOL     OW73776   6.717   0.481   1.893 -0.2439 -0.1784  0.2134
24112SOL    HW173777   6.734   0.516   1.806 -0.2750 -0.2121  0.1943
24112SOL    HW273778   6.803   0.450   1.923 -0.2349 -0.1736  0.1925
24113SOL     OW73779   7.092   4.813   2.861 -0.0516  0.7049 -0.2011
24113SOL    HW173780   7.048   4.888   2.899 -0.7844  0.2234 -0.0708
24113SOL    HW273781   7.152   4.850   2.796  0.6072  1.4762  0.8249
24114SOL     OW73782   5.971   6.999   7.143  0.4553 -0.2137 -0.3455
24114SOL    HW173783   6.052   7.044   7.119  0.9996 -0.4804  0.9148
24114SOL    HW273784   5.983   6.909   7.111  1.1165 -0.5320  0.7562
24115SOL     OW73785   0.075   1.153   6.024 -0.1549 -0.8112 -0.0078
24115SOL    HW173786   0.046   1.241   6.048  1.5922 -0.5965  1.5676
24115SOL    HW273787   0.004   1.118   5.971 -2.6298  0.1789  2.4127
24116SOL     OW73788   3.511   1.134   5.219 -0.0389  0.2611 -0.2544
24116SOL    HW173789   3.425   1.168   5.245 -0.1279  0.5440 -0.8993
24116SOL    HW273790   3.505   1.122   5.124 -0.0139 -1.5866 -0.0651
24117SOL     OW73791   1.676   7.577   5.699 -0.5552 -0.1579  0.0599
24117SOL    HW173792   1.697   7.658   5.747 -0.5500 -1.3768  2.2667
24117SOL    HW273793   1.663   7.605   5.609  0.3982  2.1590  0.5729
24118SOL     OW73794   0.529   6.778   4.362  0.0701 -0.1437 -0.3579
24118SOL    HW173795   0.533   6.682   4.361  0.7625 -0.1344  0.3189
24118SOL    HW273796   0.557   6.805   4.275  0.2322 -0.5472 -0.4294
24119SOL     OW73797   5.420   0.862   8.165  0.0841 -0.2240 -0.5859
24119SOL    HW173798   5.467   0.943   8.147 -0.1721 -0.2187 -1.2252
24119SOL    HW273799   5.389   0.832   8.080  0.3083 -1.0748 -0.3808
24120SOL     OW73800   4.216   0.512   3.381 -0.0458 -0.6016 -0.1342
24120SOL    HW173801   4.172   0.437   3.422 -0.9725  0.4703  0.9062
24120SOL    HW273802   4.211   0.495   3.287  0.4534 -2.2026  0.0914
24121SOL     OW73803   1.895   3.120   3.706 -0.6338 -0.4556 -0.5726
24121SOL    HW173804   1.957   3.090   3.773 -0.2725  2.1823  0.4035
24121SOL    HW273805   1.945   3.118   3.625  1.1714  2.3873  0.3090
24122SOL     OW73806   5.541   5.472  10.502  0.3168 -0.4252 -0.0637
24122SOL    HW173807   5.525   5.417  10.579  0.0210 -0.5675 -0.2260
24122SOL    HW273808   5.635   5.461  10.484  0.8415  1.0738  1.4036
24123SOL     OW73809   0.326   2.017   4.772  0.2043 -0.2843 -0.7304
24123SOL    HW173810   0.310   1.932   4.813  2.9837 -0.9707 -0.8664
24123SOL    HW273811   0.259   2.024   4.704 -1.8067 -1.0569  1.0590
24124SOL     OW73812   2.400   4.402   2.541 -0.4611 -0.2455  0.0271
24124SOL    HW173813   2.363   4.474   2.489 -0.2871  0.1103  0.3880
24124SOL    HW273814   2.487   4.433   2.566 -0.2128 -0.7680 -0.1840
24125SOL     OW73815   1.414   7.663   0.870 -0.5761  0.4205  0.2572
24125SOL    HW173816   1.435   7.618   0.788  1.5795  1.1910  0.3147
24125SOL    HW273817   1.359   7.737   0.844  0.4059  0.8776 -0.5840
24126SOL     OW73818   0.799   5.495   5.608  0.5225  0.3483 -0.1195
24126SOL    HW173819   0.874   5.486   5.549  1.0803  3.2069  0.0465
24126SOL    HW273820   0.837   5.492   5.696  0.1706 -0.1483  0.0204
24127SOL     OW73821   3.941   1.127   5.286 -0.0442  0.4341  0.2146
24127SOL    HW173822   3.866   1.173   5.322  0.5620  0.1806  1.8879
24127SOL    HW273823   4.017   1.168   5.327  0.6556 -0.1800 -0.4258
24128SOL     OW73824   4.128   3.721   4.947  0.2235  0.6497 -0.1398
24128SOL    HW173825   4.134   3.758   5.035 -1.0267  0.3105  0.1030
24128SOL    HW273826   4.117   3.627   4.960  2.4713  0.2275 -0.7387
24129SOL     OW73827   6.540   3.659  12.036  0.0728  0.2379 -0.1751
24129SOL    HW173828   6.528   3.637  11.944 -0.2351  1.0707 -0.3442
24129SOL    HW273829   6.497   3.588  12.083  0.3020 -0.2352 -0.6685
24130SOL     OW73830   2.148   0.440   9.314  0.0102  0.2886 -0.1158
24130SOL    HW173831   2.191   0.523   9.333  0.1480  0.0264  0.7807
24130SOL    HW273832   2.159   0.428   9.220  0.7056  0.8866 -0.1231
24131SOL     OW73833   7.339   0.720   5.823 -0.0055 -0.0470  0.0908
24131SOL    HW173834   7.395   0.760   5.757  0.8624 -1.0408  0.1934
24131SOL    HW273835   7.379   0.745   5.907  0.0789 -0.4342  0.1730
24132SOL     OW73836   5.929   7.908   9.468  0.8425  0.1454 -0.1682
24132SOL    HW173837   5.963   7.993   9.495  1.8001 -0.8533  2.0704
24132SOL    HW273838   5.993   7.875   9.405  0.9332  0.6818 -0.3618
24133SOL     OW73839   7.425   3.273   6.084  0.0633  0.0838  0.4331
24133SOL    HW173840   7.513   3.309   6.070  0.0552 -0.1035 -0.1437
24133SOL    HW273841   7.439   3.180   6.100 -0.0569 -0.0438 -0.1650
24134SOL     OW73842   6.314   6.235  10.188 -0.1039 -0.1835  0.1926
24134SOL    HW173843   6.267   6.216  10.107 -1.8823 -1.0147  1.3351
24134SOL    HW273844   6.255   6.204  10.257  1.3036  0.5727  1.8104
24135SOL     OW73845   1.160   2.394   0.315 -0.0013  0.0687 -0.0578
24135SOL    HW173846   1.240   2.392   0.262  0.8049 -0.0390  1.1369
24135SOL    HW273847   1.165   2.316   0.370  0.2355  1.2516  1.6716
24136SOL     OW73848   2.126   6.221  12.052 -0.0407 -0.5674  0.3231
24136SOL    HW173849   2.133   6.137  12.097 -2.0831  0.1884  2.2072
24136SOL    HW273850   2.036   6.225  12.021  0.3051  0.5238 -0.6239
24137SOL     OW73851   4.039   5.499   8.996 -0.0022  0.1634  0.8277
24137SOL    HW173852   3.984   5.506   9.074 -0.9560 -0.4645  0.2306
24137SOL    HW273853   4.107   5.436   9.020 -0.3312 -0.0804  1.1331
24138SOL     OW73854   0.175   7.149   5.057 -0.1978  0.1597  0.8664
24138SOL    HW173855   0.262   7.184   5.072 -0.4218  0.9203  0.4427
24138SOL    HW273856   0.185   7.054   5.064  1.3037 -0.0216 -2.1924
24139SOL     OW73857   5.950   5.634   6.175  0.0818 -0.2178 -0.4947
24139SOL    HW173858   5.957   5.695   6.102  1.9329 -0.6023 -0.7052
24139SOL    HW273859   5.912   5.555   6.137 -0.7733  0.2299 -0.5900
24140SOL     OW73860   6.453   0.570  10.949  0.3737  0.0829  0.0063
24140SOL    HW173861   6.421   0.659  10.962 -0.6658 -0.5565  2.2672
24140SOL    HW273862   6.455   0.531  11.037  1.5176 -1.9000 -0.8159
24141SOL     OW73863   0.648   1.608   9.335 -0.3538 -0.2359  0.3960
24141SOL    HW173864   0.626   1.631   9.245  1.6192  0.3833  0.0122
24141SOL    HW273865   0.633   1.514   9.340 -1.3373 -0.1260 -0.3053
24142SOL     OW73866   0.984   3.491  11.521  0.5021 -0.6508  0.0107
24142SOL    HW173867   0.892   3.515  11.524 -0.0465 -2.6213  0.1445
24142SOL    HW273868   1.019   3.539  11.445 -1.2543 -1.8110 -1.6178
24143SOL     OW73869   4.545   6.912   2.884  0.2586 -0.0352 -0.0650
24143SOL    HW173870   4.478   6.858   2.844 -0.0910  0.8448 -0.7000
24143SOL    HW273871   4.623   6.897   2.832  0.0877  0.2876 -0.4150
24144SOL     OW73872   3.595   5.183   9.469 -0.2896 -0.1063 -0.5837
24144SOL    HW173873   3.686   5.210   9.482 -0.2292 -0.8168  0.6038
24144SOL    HW273874   3.555   5.190   9.556 -1.0710 -0.8819 -0.8666
24145SOL     OW73875   4.708   2.866   5.929  0.2988 -0.1438 -0.3809
24145SOL    HW173876   4.622   2.824   5.920 -0.2447  0.6956  0.6818
24145SOL    HW273877   4.768   2.793   5.946  0.1644 -0.9543 -2.9227
24146SOL     OW73878   1.645   1.470   2.046 -0.8055 -0.3009 -0.4149
24146SOL    HW173879   1.666   1.420   1.967 -1.9472 -0.5357 -0.5803
24146SOL    HW273880   1.562   1.512   2.026 -0.6464  0.3739  0.3302
24147SOL     OW73881   5.878   5.003   3.730  0.1634 -0.1030  0.6849
24147SOL    HW173882   5.923   4.970   3.652  0.9797  0.5169  0.8895
24147SOL    HW273883   5.815   4.934   3.752  1.0499 -1.0139  0.4367
24148SOL     OW73884   0.595   0.776   0.089 -0.1123 -0.0003  0.1846
24148SOL    HW173885   0.668   0.801   0.032 -0.5929  0.0827 -0.4057
24148SOL    HW273886   0.522   0.759   0.029 -0.8240  0.7460  0.8147
24149SOL     OW73887   0.874   0.016   8.152  0.1548 -0.0134  0.3741
24149SOL    HW173888   0.817   0.087   8.122 -0.3846 -0.7375 -0.3465
24149SOL    HW273889   0.903   0.044   8.239 -1.2112  0.4268  0.7127
24150SOL     OW73890   1.973   5.650   4.282  0.2060  0.0962  0.3550
24150SOL    HW173891   2.002   5.580   4.341 -0.6843  0.3522  1.1021
24150SOL    HW273892   1.928   5.604   4.211 -0.5057 -0.0901  0.9200
24151SOL     OW73893   7.856   2.846   6.048  0.0477  0.0503  0.2868
24151SOL    HW173894   7.821   2.877   5.965  0.5246 -0.9515 -0.3021
24151SOL    HW273895   7.829   2.754   6.054  0.5299 -0.0598  0.9546
24152SOL     OW73896   6.559   5.054   8.200 -0.2265  0.1018  0.3280
24152SOL    HW173897   6.474   5.077   8.161  0.1434  0.4327 -0.3102
24152SOL    HW273898   6.539   5.032   8.291 -1.1731 -1.1101 -0.1478
24153SOL     OW73899   1.198   6.974  11.677 -0.1239 -0.2086 -0.2118
24153SOL    HW173900   1.248   6.927  11.610 -1.1625 -0.0217 -1.1669
24153SOL    HW273901   1.134   6.910  11.708 -0.1063 -0.0823  0.0839
24154SOL     OW73902   4.160   1.849   5.632  0.2727 -0.0590 -0.3644
24154SOL    HW173903   4.127   1.906   5.701 -3.0066 -0.0506 -1.7260
24154SOL    HW273904   4.206   1.908   5.572 -1.0268  0.8119 -0.5486
24155SOL     OW73905   2.692   4.898   0.561  0.2766 -0.2095  0.3039
24155SOL    HW173906   2.654   4.811   0.573 -0.1843 -0.2463 -1.2800
24155SOL    HW273907   2.635   4.941   0.497 -0.6821  2.0086  2.4577
24156SOL     OW73908   0.122   5.775  10.003 -0.2352  0.0040  0.0527
24156SOL    HW173909   0.090   5.720   9.932  0.9247 -0.8884  0.1799
24156SOL    HW273910   0.191   5.828   9.963  2.6464 -2.6872  1.0378
24157SOL     OW73911   2.221   4.758   8.092  0.3069 -0.4825  0.1149
24157SOL    HW173912   2.250   4.668   8.103  1.6630 -0.5004 -2.7101
24157SOL    HW273913   2.211   4.791   8.182  2.2678 -2.6608  1.2468
24158SOL     OW73914   2.793   6.614   7.646 -0.0052  0.4310  0.2739
24158SOL    HW173915   2.864   6.609   7.582 -0.7876  0.1096 -0.6046
24158SOL    HW273916   2.800   6.702   7.683 -0.3204  1.1188 -1.2232
24159SOL     OW73917   2.409   3.784   1.924  0.3289  0.0539  0.2379
24159SOL    HW173918   2.360   3.780   1.841  0.3521  0.1188  0.2208
24159SOL    HW273919   2.374   3.711   1.976 -0.2079  0.4634  0.4574
24160SOL     OW73920   3.936   5.459   9.962 -0.1046 -0.0105  0.3589
24160SOL    HW173921   3.919   5.546   9.998 -2.2800 -0.7431  1.2833
24160SOL    HW273922   3.993   5.475   9.887 -0.2979  2.1706  0.5985
24161SOL     OW73923   5.585   4.583   2.384 -0.0947 -0.0789  0.0196
24161SOL    HW173924   5.638   4.662   2.376 -0.0646 -0.0972  0.0380
24161SOL    HW273925   5.508   4.600   2.330 -0.8231  0.5853  1.2039
24162SOL     OW73926   0.820   6.450   6.811 -0.4141 -0.1248 -0.1863
24162SOL    HW173927   0.860   6.368   6.782 -1.1929 -0.9228  0.9434
24162SOL    HW273928   0.893   6.502   6.844 -0.1597 -1.1815  0.9592
24163SOL     OW73929   2.960   7.597   9.889 -0.1577 -0.0140 -0.1788
24163SOL    HW173930   2.905   7.674   9.874  0.4558  0.7084  1.0359
24163SOL    HW273931   2.969   7.593   9.984  0.7687 -0.9119 -0.2896
24164SOL     OW73932   4.501   5.517   4.351  0.1813 -0.0064  0.1184
24164SOL    HW173933   4.448   5.454   4.303 -0.1351 -0.1840  0.6925
24164SOL    HW273934   4.468   5.512   4.441 -1.7156  2.9302 -0.2953
24165SOL     OW73935   1.200   1.344   8.974  0.0774 -0.1301  0.3371
24165SOL    HW173936   1.257   1.420   8.989 -0.5789  0.2966  0.7473
24165SOL    HW273937   1.205   1.328   8.880  0.1203  0.5129  0.2273
24166SOL     OW73938   6.799   2.119  10.750 -0.3142 -0.4957  0.2778
24166SOL    HW173939   6.833   2.029  10.748  0.0418 -0.4286  1.7772
24166SOL    HW273940   6.840   2.162  10.675  1.3804 -0.9740  0.8796
24167SOL     OW73941   6.403   4.738   5.051  0.4515 -0.1886  0.3498
24167SOL    HW173942   6.417   4.832   5.043 -1.1644 -0.0161 -1.3076
24167SOL    HW273943   6.419   4.704   4.963 -0.4668 -1.2221  0.5602
24168SOL     OW73944   3.595   2.676   3.253  0.1131 -0.6986  0.4066
24168SOL    HW173945   3.664   2.623   3.294 -0.0965 -2.3470 -1.2550
24168SOL    HW273946   3.632   2.702   3.169 -0.8127 -0.4960  0.0572
24169SOL     OW73947   3.064   4.111  10.338 -0.9032  0.4999  0.3035
24169SOL    HW173948   3.011   4.043  10.379  2.3409 -1.9784  0.7988
24169SOL    HW273949   3.108   4.155  10.411  1.1352 -0.6291 -0.1559
24170SOL     OW73950   1.900   0.070   4.722 -0.5594  0.0178 -0.5647
24170SOL    HW173951   1.864   0.099   4.806  1.1277  0.6609 -0.0292
24170SOL    HW273952   1.967   0.006   4.745  1.0030  1.3371 -1.2903
24171SOL     OW73953   0.787   2.096   8.423 -0.0724  0.1426 -0.0027
24171SOL    HW173954   0.835   2.102   8.505 -1.8085  0.6147  1.0283
24171SOL    HW273955   0.697   2.077   8.449 -0.6438  0.1969 -1.8036
24172SOL     OW73956   3.015   2.817   3.835 -0.1973 -0.2679  0.1115
24172SOL    HW173957   3.083   2.781   3.778 -0.7426 -1.7610  0.3637
24172SOL    HW273958   2.955   2.862   3.775 -0.4622 -1.3353 -0.4453
24173SOL     OW73959   6.592   7.878   0.667  0.2864 -0.0663  0.2369
24173SOL    HW173960   6.606   7.944   0.599  0.5124 -1.7417 -1.4102
24173SOL    HW273961   6.655   7.900   0.735  2.6125 -0.3888 -1.6964
24174SOL     OW73962   2.378   0.134   9.320  0.0906 -0.9220  0.0337
24174SOL    HW173963   2.359   0.201   9.386  0.9498  0.5025 -1.0844
24174SOL    HW273964   2.432   0.070   9.366 -3.0138 -2.4402  1.9043
24175SOL     OW73965   4.121   4.502  11.919  0.6202 -0.2492  0.0762
24175SOL    HW173966   4.195   4.507  11.980  0.2531 -1.2052  0.6184
24175SOL    HW273967   4.133   4.577  11.861  1.6304  0.0057  0.5901
24176SOL     OW73968   2.977   4.435   2.424 -0.3601  0.4236  0.0139
24176SOL    HW173969   2.933   4.506   2.377  0.7788  0.6830 -0.6945
24176SOL    HW273970   3.039   4.480   2.481 -1.6889  0.1124  1.7939
24177SOL     OW73971   7.491   6.454   8.517 -0.7809  0.3257 -0.4456
24177SOL    HW173972   7.569   6.450   8.571 -1.0448  0.6905 -0.0323
24177SOL    HW273973   7.423   6.489   8.575 -1.0210  0.8892 -1.0498
24178SOL     OW73974   6.013   2.301   9.001 -0.2232  0.2723  0.3360
24178SOL    HW173975   6.074   2.324   8.931 -0.0287 -1.4230 -0.0960
24178SOL    HW273976   6.042   2.353   9.077  1.7670 -0.4707  0.1419
24179SOL     OW73977   5.969   2.502  11.195 -0.3727 -0.3107 -0.1893
24179SOL    HW173978   6.044   2.542  11.150  0.0883  0.5956  1.2929
24179SOL    HW273979   5.989   2.409  11.197  1.3480  0.0293  1.1954
24180SOL     OW73980   3.309   7.504   3.845  0.0815  0.1461 -0.5789
24180SOL    HW173981   3.252   7.437   3.883  0.4584  0.6301  0.9263
24180SOL    HW273982   3.397   7.467   3.852  0.5436  1.4406  2.0355
24181SOL     OW73983   2.887   6.479   4.052  0.2345 -0.3496 -0.3986
24181SOL    HW173984   2.862   6.407   3.994  1.3156  0.1690 -1.5551
24181SOL    HW273985   2.935   6.540   3.996  2.1771 -0.2824  1.2374
24182SOL     OW73986   6.704   1.562   7.443  0.0652 -0.0506  0.5000
24182SOL    HW173987   6.770   1.571   7.512  1.2351 -0.8233 -0.4716
24182SOL    HW273988   6.708   1.644   7.394  0.7144 -0.2994  0.1197
24183SOL     OW73989   3.866   4.696   1.938 -0.0004 -0.0289 -0.3272
24183SOL    HW173990   3.777   4.689   1.901 -0.0271 -0.0121 -0.2658
24183SOL    HW273991   3.918   4.735   1.867 -0.3434  1.2835  0.1175
24184SOL     OW73992   1.874   3.134   9.930  0.4454  0.0284 -0.4271
24184SOL    HW173993   1.799   3.128   9.989  1.6527  0.4210  1.2240
24184SOL    HW273994   1.852   3.206   9.871  0.4346  1.7137  1.4997
24185SOL     OW73995   4.703   6.115   3.720  0.5257 -0.4489 -0.2221
24185SOL    HW173996   4.650   6.133   3.798 -0.1235 -1.4699 -0.4169
24185SOL    HW273997   4.770   6.053   3.749  0.9392 -0.0233 -0.2421
24186SOL     OW73998   3.968   4.696   9.303 -0.0763  0.4112 -0.2863
24186SOL    HW173999   3.961   4.719   9.395 -2.2681 -1.8190  0.2266
24186SOL    HW274000   4.058   4.719   9.279  0.3600  1.6601  2.1851
24187SOL     OW74001   7.626   4.560   4.869 -0.1555 -0.5684  0.3267
24187SOL    HW174002   7.536   4.587   4.889  0.4475  0.6351  1.5782
24187SOL    HW274003   7.680   4.632   4.900  1.2656 -1.3457 -0.2566
24188SOL     OW74004   0.507   0.045  11.647 -0.1240 -0.6315  0.3756
24188SOL    HW174005   0.490  -0.008  11.726 -2.3309 -0.8849 -0.1916
24188SOL    HW274006   0.529  -0.019  11.580  1.1727 -0.4614  0.6146
24189SOL     OW74007   5.874   0.146   3.653 -0.1787 -0.1363 -0.3501
24189SOL    HW174008   5.860   0.083   3.723 -1.3776 -0.6271 -0.9869
24189SOL    HW274009   5.904   0.225   3.697 -1.2107 -0.3345  0.7694
24190SOL     OW74010   7.059   4.006   3.313 -0.3438  0.9487 -0.0780
24190SOL    HW174011   7.119   4.047   3.375 -0.1026 -0.7003  0.8362
24190SOL    HW274012   6.990   3.968   3.367  0.0692 -0.8537 -0.7208
24191SOL     OW74013   4.047   1.552  11.733 -0.3340  0.4257  0.5339
24191SOL    HW174014   4.138   1.578  11.746  1.0678 -1.8705 -3.2538
24191SOL    HW274015   4.038   1.470  11.782  0.0543  0.0037 -0.0908
24192SOL     OW74016   2.308   7.343   7.790 -0.3528  0.1436 -0.1505
24192SOL    HW174017   2.296   7.289   7.868 -1.2724  1.7769  0.8963
24192SOL    HW274018   2.253   7.302   7.723 -0.1380 -0.8458  0.2716
24193SOL     OW74019   7.634   0.345   8.369 -0.4447  0.4842 -0.5572
24193SOL    HW174020   7.556   0.401   8.366 -0.0094  1.0835 -1.0131
24193SOL    HW274021   7.692   0.382   8.302  0.4159  0.3226  0.0878
24194SOL     OW74022   5.098   0.525   9.848  0.1714  0.1284 -0.2353
24194SOL    HW174023   5.174   0.540   9.792  0.0682 -0.7219 -0.6227
24194SOL    HW274024   5.083   0.431   9.843 -0.3413  0.1554  0.5815
24195SOL     OW74025   3.682   3.000  10.982 -0.2095  0.2782 -0.2840
24195SOL    HW174026   3.767   3.042  10.997 -0.6324  0.9736  0.2755
24195SOL    HW274027   3.619   3.073  10.984 -0.7894 -0.1960 -0.9465
24196SOL     OW74028   1.596   0.652   2.728 -0.7363  0.0610  0.3515
24196SOL    HW174029   1.529   0.585   2.717 -0.5620 -0.0432 -0.1131
24196SOL    HW274030   1.592   0.703   2.647 -0.6633  0.4271  0.5744
24197SOL     OW74031   6.675   6.143  12.369  0.0665 -0.6007 -0.2582
24197SOL    HW174032   6.730   6.069  12.394 -0.4426 -1.2701 -1.0609
24197SOL    HW274033   6.618   6.158  12.444  0.4156 -0.7862  0.0481
24198SOL     OW74034   6.133   7.659  10.325  0.2069 -1.0311 -0.1206
24198SOL    HW174035   6.130   7.633  10.417 -0.3728 -0.6821 -0.0409
24198SOL    HW274036   6.199   7.601  10.286 -1.2128 -2.8104 -0.0012
24199SOL     OW74037   6.251   3.248   5.681 -0.3562  0.4971  0.1583
24199SOL    HW174038   6.185   3.180   5.680 -0.7046  0.7872  1.6100
24199SOL    HW274039   6.315   3.221   5.614 -1.6730 -0.0204 -0.9257
24200SOL     OW74040   5.616   3.369   2.143  0.2441 -0.1826 -0.6486
24200SOL    HW174041   5.651   3.290   2.102 -0.4988 -0.4457 -0.7919
24200SOL    HW274042   5.561   3.408   2.076 -0.0303  0.0225 -0.3051
24201SOL     OW74043   3.938   7.564   6.031 -0.0620  0.0238 -0.3110
24201SOL    HW174044   3.875   7.493   6.018  0.8378 -0.9253  0.3075
24201SOL    HW274045   3.884   7.642   6.041 -1.0328 -0.3911 -2.0367
24202SOL     OW74046   2.275   0.693   3.363  0.3945 -0.3802  0.0161
24202SOL    HW174047   2.243   0.604   3.377  0.0435 -0.2147  0.2728
24202SOL    HW274048   2.326   0.713   3.441  0.7485 -0.4721 -0.1866
24203SOL     OW74049   6.967   0.717   6.165  0.3954 -0.0587 -0.1891
24203SOL    HW174050   6.962   0.625   6.141  0.4028 -0.4991  1.3653
24203SOL    HW274051   6.902   0.761   6.110  1.2767 -0.7628 -1.8480
24204SOL     OW74052   3.939   1.624   2.826 -0.6511  0.2903  0.3318
24204SOL    HW174053   3.942   1.535   2.861 -0.4033  0.4842  0.8050
24204SOL    HW274054   3.851   1.655   2.848 -0.5861  0.3183  0.5558
24205SOL     OW74055   6.441   6.393  12.065  0.2773 -0.0530  0.2157
24205SOL    HW174056   6.437   6.393  12.161 -0.4781 -0.5356  0.1860
24205SOL    HW274057   6.368   6.338  12.038 -0.2629  1.0849 -0.6803
24206SOL     OW74058   4.323   0.834   6.218 -0.1011  0.3065 -0.1515
24206SOL    HW174059   4.320   0.926   6.192 -2.4692 -0.2670 -2.3266
24206SOL    HW274060   4.268   0.829   6.296 -1.4259  0.5046 -1.0481
24207SOL     OW74061   3.786   4.812  11.201 -0.5278 -0.7973 -0.1695
24207SOL    HW174062   3.704   4.858  11.220 -0.2364 -0.1644 -0.3968
24207SOL    HW274063   3.762   4.720  11.197 -1.3459 -0.5684 -0.8434
24208SOL     OW74064   5.121   3.432   3.632  0.4520  0.2540  0.1594
24208SOL    HW174065   5.204   3.452   3.589  0.4832  1.1999  0.6255
24208SOL    HW274066   5.123   3.482   3.713 -0.9340  0.9949 -0.2164
24209SOL     OW74067   3.733   6.526  11.619  0.4731  0.0013 -0.2230
24209SOL    HW174068   3.812   6.534  11.567  0.5585 -0.5616 -0.1845
24209SOL    HW274069   3.674   6.471  11.566  0.3237 -0.0515 -0.0052
24210SOL     OW74070   6.426   2.250   2.602 -0.8696  0.0313 -0.0734
24210SOL    HW174071   6.438   2.208   2.687  0.1637 -0.8954 -0.6596
24210SOL    HW274072   6.409   2.342   2.623 -1.9908 -0.4333  1.1789
24211SOL     OW74073   7.623   0.616  11.410 -0.5393 -0.1549  0.2326
24211SOL    HW174074   7.616   0.628  11.315  1.1609 -0.1838  0.0774
24211SOL    HW274075   7.654   0.700  11.443 -0.8551 -0.2315  0.7368
24212SOL     OW74076   4.058   1.683  10.913  0.3621 -0.1336  0.2080
24212SOL    HW174077   4.108   1.668  10.833  0.0619 -1.7861  0.3052
24212SOL    HW274078   4.080   1.609  10.970  0.9599  1.2594  1.8774
24213SOL     OW74079   6.704   1.573  10.389 -0.1588  0.2648  0.5303
24213SOL    HW174080   6.627   1.518  10.403  0.2380 -0.5161 -0.2447
24213SOL    HW274081   6.778   1.516  10.408  0.2876  0.2445 -1.1347
24214SOL     OW74082   1.201   0.548   8.848 -0.1274  0.3679  0.3195
24214SOL    HW174083   1.114   0.532   8.884 -0.0129  0.1268  0.4977
24214SOL    HW274084   1.256   0.480   8.887 -0.2504 -0.6955 -1.2722
24215SOL     OW74085   5.676   3.090   2.835  0.1816 -0.2119 -0.3966
24215SOL    HW174086   5.593   3.131   2.810 -0.0159 -0.8154 -0.7265
24215SOL    HW274087   5.658   2.996   2.836  0.8748 -0.3523 -0.5219
24216SOL     OW74088   5.984   4.710  10.852  0.3099  0.8498  0.2940
24216SOL    HW174089   6.023   4.772  10.790  2.2290 -0.4683  0.1056
24216SOL    HW274090   5.918   4.663  10.800 -0.2803  1.8468  0.1106
24217SOL     OW74091   2.366   1.457   6.372 -0.2694  0.3405  0.2380
24217SOL    HW174092   2.385   1.495   6.458 -0.1894  0.6159  0.0996
24217SOL    HW274093   2.280   1.493   6.349  0.5635  1.8411 -0.6738
24218SOL     OW74094   1.950   1.942   9.393  0.2095  0.0547 -0.2597
24218SOL    HW174095   1.867   1.907   9.427 -0.0518  1.6482  0.8818
24218SOL    HW274096   1.928   1.974   9.305 -0.4939  0.7824  0.1674
24219SOL     OW74097   2.815   3.944   8.609  0.4882  0.6732 -0.3230
24219SOL    HW174098   2.742   4.004   8.625 -0.4568 -0.8791  1.5396
24219SOL    HW274099   2.792   3.901   8.527 -1.5570 -0.8685  0.9564
24220SOL     OW74100   5.018   2.270   9.438 -0.4964 -0.1567 -0.2162
24220SOL    HW174101   4.964   2.328   9.385  0.5739 -1.1858 -2.6087
24220SOL    HW274102   4.963   2.192   9.452  0.2111 -1.2020 -2.6438
24221SOL     OW74103   4.647   2.091   5.860  0.6958  0.1922  0.4709
24221SOL    HW174104   4.561   2.111   5.896  0.4689  0.4930 -0.2259
24221SOL    HW274105   4.632   2.076   5.767  1.1308 -1.4982  0.6341
24222SOL     OW74106   4.932   6.931   5.102 -0.6055  0.4427  0.1264
24222SOL    HW174107   4.880   6.880   5.040 -1.5618 -0.2688  1.4651
24222SOL    HW274108   5.020   6.894   5.095 -1.0259 -0.6212  0.2193
24223SOL     OW74109   4.313   7.169   6.211 -0.7822  0.3737 -0.0462
24223SOL    HW174110   4.250   7.234   6.178  0.2530  0.5252 -1.8151
24223SOL    HW274111   4.324   7.192   6.303 -1.7848  1.6057 -0.2006
24224SOL     OW74112   2.463   0.711   8.641  0.0822  0.0553  0.0975
24224SOL    HW174113   2.402   0.729   8.569 -1.0254 -1.9036  0.4634
24224SOL    HW274114   2.413   0.727   8.720  0.8290  0.7559  0.4435
24225SOL     OW74115   4.169   7.253  10.298  0.2639  0.1956 -0.1542
24225SOL    HW174116   4.233   7.220  10.361  0.5353  0.2637 -0.3905
24225SOL    HW274117   4.140   7.175  10.250  2.1962  0.4630 -1.9078
24226SOL     OW74118   1.203   6.279   8.619 -0.3345 -0.4414  0.0548
24226SOL    HW174119   1.222   6.366   8.586  1.3716 -0.7250  0.2123
24226SOL    HW274120   1.129   6.292   8.679 -1.5385  0.5194 -1.5630
24227SOL     OW74121   4.188   0.808   0.771 -0.4295  0.1780 -0.4385
24227SOL    HW174122   4.148   0.842   0.851  0.8993  0.9170 -0.0590
24227SOL    HW274123   4.119   0.812   0.705 -1.6011 -0.5972  0.6941
24228SOL     OW74124   4.008   7.195   1.493 -0.4983  0.0033 -0.1784
24228SOL    HW174125   3.993   7.269   1.552  0.0696 -0.6604  0.8210
24228SOL    HW274126   3.948   7.210   1.420  0.2616  1.9685 -0.4873
24229SOL     OW74127   7.290   3.829  11.547 -0.0395 -0.3584  0.3831
24229SOL    HW174128   7.315   3.749  11.594 -0.7887 -0.2490  1.0000
24229SOL    HW274129   7.243   3.881  11.612 -1.0359 -0.1572 -0.4743
24230SOL     OW74130   4.282   2.824   3.731 -0.9880 -0.2558  0.2135
24230SOL    HW174131   4.241   2.897   3.685  0.4224  0.3259 -0.1503
24230SOL    HW274132   4.363   2.860   3.766  0.1188 -1.8312 -0.6225
24231SOL     OW74133   6.813   1.907   1.102  0.6971 -0.8969 -0.1596
24231SOL    HW174134   6.897   1.913   1.149  1.4739 -2.0009 -1.3143
24231SOL    HW274135   6.826   1.835   1.040  0.3620  1.5080 -3.2841
24232SOL     OW74136   6.238   1.711   3.113  0.1363  0.0568 -0.2328
24232SOL    HW174137   6.155   1.757   3.101  0.1645  0.6631  1.6338
24232SOL    HW274138   6.265   1.687   3.024 -0.9277  1.7775 -1.0692
24233SOL     OW74139   5.155   6.650   1.400 -0.2452  0.7673  0.1463
24233SOL    HW174140   5.202   6.622   1.478  0.2658  0.8760 -0.1200
24233SOL    HW274141   5.213   6.713   1.357 -0.1074  0.0292 -0.7962
24234SOL     OW74142   5.808   0.386   6.295 -0.3364 -0.1120  0.0062
24234SOL    HW174143   5.739   0.448   6.317  0.3015  1.2656 -1.6187
24234SOL    HW274144   5.827   0.341   6.377 -1.5711  1.0749  0.9959
24235SOL     OW74145   3.075   1.834  11.904  0.1565 -0.2673 -0.2936
24235SOL    HW174146   3.011   1.841  11.833 -0.5549  0.6161  0.4052
24235SOL    HW274147   3.042   1.762  11.959  0.3382 -0.5042 -0.4933
24236SOL     OW74148   6.040   1.067   7.106  0.1538 -0.4208  0.3789
24236SOL    HW174149   6.131   1.057   7.134 -0.1475 -0.3794  1.4271
24236SOL    HW274150   6.001   1.126   7.171 -0.9704 -1.5456  0.7771
24237SOL     OW74151   0.811   4.925   4.792  0.2455 -0.1530 -0.3482
24237SOL    HW174152   0.851   4.843   4.820 -1.7938 -1.2870 -0.6097
24237SOL    HW274153   0.829   4.929   4.697 -0.5199 -0.8208 -0.5275
24238SOL     OW74154   5.246   6.176  12.132 -0.0702 -0.3866  0.5579
24238SOL    HW174155   5.207   6.089  12.133  0.9611 -0.8703 -0.0161
24238SOL    HW274156   5.303   6.177  12.056  0.4308  0.5678  0.9190
24239SOL     OW74157   3.436   1.161  10.933  0.3790  0.0866 -0.2456
24239SOL    HW174158   3.516   1.189  10.889  0.4010  0.9700  0.3349
24239SOL    HW274159   3.389   1.242  10.953  0.5162 -0.2497  1.6272
24240SOL     OW74160   4.377   2.165   8.273  0.1388 -0.0844 -0.2382
24240SOL    HW174161   4.353   2.140   8.362 -0.6220 -2.3935 -1.0198
24240SOL    HW274162   4.294   2.168   8.226  0.5440  0.9928 -0.9169
24241SOL     OW74163   6.499   2.216   3.885 -0.1755  0.2318  0.0616
24241SOL    HW174164   6.474   2.278   3.953 -0.4499  0.3776 -0.1678
24241SOL    HW274165   6.419   2.164   3.869 -0.7474  1.5013 -1.5328
24242SOL     OW74166   1.159   2.553   2.277 -0.1311 -0.0504 -0.8376
24242SOL    HW174167   1.228   2.598   2.227  1.3120 -1.6084 -0.3429
24242SOL    HW274168   1.128   2.484   2.218  0.1960 -0.6507 -0.3185
24243SOL     OW74169   6.815   1.696   3.743  0.0494 -0.0360  0.2541
24243SOL    HW174170   6.849   1.727   3.827  2.8581  0.4182 -0.9517
24243SOL    HW274171   6.854   1.609   3.732 -0.8471 -0.3830 -0.2775
24244SOL     OW74172   5.708   3.168   6.417  0.0625 -0.2391 -0.2165
24244SOL    HW174173   5.624   3.124   6.403 -0.8014  1.7196 -1.6475
24244SOL    HW274174   5.771   3.096   6.429 -1.3169 -1.8698 -2.0463
24245SOL     OW74175   0.130   4.704   8.548 -0.6499 -0.4953 -0.0702
24245SOL    HW174176   0.094   4.786   8.580  0.7885 -0.3167  1.1595
24245SOL    HW274177   0.109   4.704   8.454 -1.5734  0.7620  0.1101
24246SOL     OW74178   0.699   2.771   5.214 -0.1642 -0.4758 -0.3311
24246SOL    HW174179   0.788   2.738   5.225 -0.1092 -0.3002 -0.2477
24246SOL    HW274180   0.644   2.693   5.218 -0.0155 -0.5820 -0.3606
24247SOL     OW74181   1.842   3.785  10.884 -0.5362 -0.1126 -0.0041
24247SOL    HW174182   1.831   3.812  10.793 -0.3432 -0.4448 -0.1302
24247SOL    HW274183   1.824   3.863  10.935  0.8148  0.4814 -0.3879
24248SOL     OW74184   5.821   3.242   1.493 -0.3326  0.0286  0.0172
24248SOL    HW174185   5.751   3.282   1.442  0.1058  0.3252 -0.3633
24248SOL    HW274186   5.822   3.150   1.466 -1.7280 -0.4161  1.3189
24249SOL     OW74187   1.778   7.259   9.508 -0.0643 -0.3496  0.1654
24249SOL    HW174188   1.770   7.183   9.565 -0.6239 -0.2394  0.2411
24249SOL    HW274189   1.833   7.320   9.557 -0.6928 -0.1805  0.6786
24250SOL     OW74190   7.080   3.814   1.408  0.2146  0.0760  0.3566
24250SOL    HW174191   7.117   3.817   1.496 -0.3037  0.3689  0.5673
24250SOL    HW274192   6.995   3.772   1.419  0.4744 -0.5965 -0.1270
24251SOL     OW74193   3.773   3.958   1.464  0.1994  0.4088 -0.4357
24251SOL    HW174194   3.814   3.905   1.532  0.1128 -1.7648 -1.9908
24251SOL    HW274195   3.823   3.939   1.385  0.1761  2.7336 -1.0781
24252SOL     OW74196   3.268   4.400  10.255 -0.3561  0.2600 -0.2910
24252SOL    HW174197   3.198   4.430  10.198 -0.0464 -0.4156 -1.0425
24252SOL    HW274198   3.287   4.311  10.226 -1.3748 -0.7944  1.9727
24253SOL     OW74199   2.926   6.258   2.966 -0.5313  0.1273 -0.1545
24253SOL    HW174200   2.867   6.300   2.904  0.3483 -0.6003 -1.5306
24253SOL    HW274201   3.012   6.293   2.944 -0.1767 -0.2909  0.5389
24254SOL     OW74202   4.807   2.092   8.967  0.6439  0.0880 -0.9869
24254SOL    HW174203   4.861   2.118   8.893 -1.2253  2.0886 -1.7520
24254SOL    HW274204   4.730   2.149   8.962 -0.3371 -0.8673  1.5246
24255SOL     OW74205   6.921   4.452   9.558 -0.6642  0.1024 -0.4661
24255SOL    HW174206   6.981   4.378   9.554  0.2847  0.9164 -2.4413
24255SOL    HW274207   6.978   4.529   9.562 -1.6027  0.8208 -0.4911
24256SOL     OW74208   6.619   2.618   0.384 -0.3978 -0.0020  0.5644
24256SOL    HW174209   6.674   2.565   0.327  0.0401  1.9006 -0.8570
24256SOL    HW274210   6.583   2.686   0.327 -2.4533  0.1499  1.9222
24257SOL     OW74211   3.160   7.923   7.614  0.3661 -0.0737 -0.0744
24257SOL    HW174212   3.239   7.874   7.639 -0.4247 -2.4822 -1.9799
24257SOL    HW274213   3.093   7.892   7.675  0.2211 -0.1952 -0.2972
24258SOL     OW74214   0.207   4.352   7.609 -0.5979  0.2068  0.2971
24258SOL    HW174215   0.120   4.327   7.577 -0.2043 -0.5658 -0.2018
24258SOL    HW274216   0.227   4.433   7.562 -0.2797 -0.6014 -1.0019
24259SOL     OW74217   5.633   6.353  10.428  0.8794  0.0979 -0.6231
24259SOL    HW174218   5.643   6.258  10.432 -2.0886 -0.2482  2.4653
24259SOL    HW274219   5.609   6.370  10.336  0.5602 -2.2465 -1.0373
24260SOL     OW74220   1.513   6.359   9.284 -0.2758 -0.1550  0.3923
24260SOL    HW174221   1.450   6.418   9.243  1.4494  1.1945 -0.3912
24260SOL    HW274222   1.558   6.317   9.211  0.9697  0.2517  0.9057
24261SOL     OW74223   7.665   1.487   2.313  0.5638 -0.0768 -0.5837
24261SOL    HW174224   7.754   1.495   2.348  0.0095 -1.3011  1.2494
24261SOL    HW274225   7.652   1.393   2.303 -1.0496 -0.0265  0.6819
24262SOL     OW74226   2.019   4.261   9.380 -0.0692  0.2983 -0.5628
24262SOL    HW174227   1.994   4.351   9.404  0.0342  0.4080 -0.8722
24262SOL    HW274228   2.115   4.261   9.385 -0.0945  0.0236  0.0871
24263SOL     OW74229   5.678   6.356   8.571  0.1084 -0.5219  0.0765
24263SOL    HW174230   5.719   6.435   8.608 -1.4422  0.2607  0.2231
24263SOL    HW274231   5.585   6.376   8.572 -0.1354 -1.1565 -2.6992
24264SOL     OW74232   1.062   5.070   1.470 -0.3835 -0.2278 -0.3918
24264SOL    HW174233   1.055   5.087   1.564 -0.4639  2.0445 -0.7457
24264SOL    HW274234   1.134   5.008   1.462  0.3074  0.3345  1.1215
24265SOL     OW74235   2.082   4.771   4.850  0.4097  0.1051  0.2260
24265SOL    HW174236   2.028   4.701   4.813  1.3392 -1.2251  1.3162
24265SOL    HW274237   2.027   4.850   4.842 -0.6866 -0.7323 -0.9474
24266SOL     OW74238   7.508   6.879   2.587 -0.0671 -0.1060  0.2891
24266SOL    HW174239   7.576   6.942   2.562 -1.7740  0.8197 -2.3908
24266SOL    HW274240   7.557   6.801   2.612  2.0244  1.0958  0.2204
24267SOL     OW74241   0.333   0.241   4.448  0.8056 -0.0946  0.1683
24267SOL    HW174242   0.358   0.330   4.420  1.3155 -0.8057 -1.8328
24267SOL    HW274243   0.415   0.200   4.474  0.3900  0.4101  2.4768
24268SOL     OW74244   5.028   7.111   2.897 -0.4615 -0.5800 -0.1957
24268SOL    HW174245   5.067   7.180   2.951  0.5250 -2.3495  1.5144
24268SOL    HW274246   4.935   7.112   2.921 -0.5741  0.4601 -0.6016
24269SOL     OW74247   3.918   6.887   5.838  0.1712  0.3607  0.4123
24269SOL    HW174248   3.932   6.981   5.825  2.2956  0.0787  0.3465
24269SOL    HW274249   3.994   6.858   5.887 -1.0549 -1.1357  1.5289
24270SOL     OW74250   4.698   4.186  12.364 -0.4846  0.0961 -0.1421
24270SOL    HW174251   4.772   4.131  12.337 -1.3999 -0.5416 -1.4600
24270SOL    HW274252   4.635   4.178  12.292 -1.3266  1.5967  0.3906
24271SOL     OW74253   6.997   3.395   7.765  0.0733 -0.4624 -0.1143
24271SOL    HW174254   7.067   3.445   7.724  2.0109 -1.6315  1.5754
24271SOL    HW274255   6.964   3.452   7.835 -1.1298  0.3110 -1.2586
24272SOL     OW74256   3.379   6.783   3.628 -0.3088  0.1558 -0.0404
24272SOL    HW174257   3.432   6.723   3.575  0.1444  0.0145  0.5674
24272SOL    HW274258   3.442   6.843   3.668 -0.8362  1.8100 -1.5491
24273SOL     OW74259   7.251   7.378   4.676  0.4571  0.0392  0.2503
24273SOL    HW174260   7.235   7.326   4.754 -2.2856 -0.9243 -0.8524
24273SOL    HW274261   7.272   7.314   4.608 -1.8297  0.3437 -0.8495
24274SOL     OW74262   5.857   6.416  11.312  0.0429  0.2551 -0.1600
24274SOL    HW174263   5.831   6.508  11.319  1.1666  0.6835 -1.1455
24274SOL    HW274264   5.801   6.381  11.242 -0.7708  0.0223  0.5911
24275SOL     OW74265   7.434   2.008   9.786  0.1529 -0.0463  0.3692
24275SOL    HW174266   7.527   1.999   9.810  0.2337 -1.1070 -0.2278
24275SOL    HW274267   7.403   2.083   9.836 -0.2371 -3.0517  5.3434
24276SOL     OW74268   5.652   1.120   4.299 -0.2434 -0.1770  0.4675
24276SOL    HW174269   5.693   1.132   4.384 -1.0439  0.6090  0.7572
24276SOL    HW274270   5.575   1.065   4.316  0.1622 -0.8896  0.0740
24277SOL     OW74271   2.798   7.656   9.566  0.2258  0.0001 -0.0463
24277SOL    HW174272   2.814   7.749   9.580  1.7316 -0.3630  0.9925
24277SOL    HW274273   2.881   7.623   9.531  0.4709 -1.2880  1.5873
24278SOL     OW74274   0.236   1.351   0.141  0.0923 -0.0553  0.3745
24278SOL    HW174275   0.322   1.311   0.125 -0.5434 -0.5148 -2.4992
24278SOL    HW274276   0.247   1.442   0.112 -0.6353 -0.4278 -1.2018
24279SOL     OW74277   0.872   4.073  11.861  0.0270 -0.3807 -0.7581
24279SOL    HW174278   0.814   4.105  11.792  0.0124 -1.0932 -1.0869
24279SOL    HW274279   0.924   4.149  11.886 -1.5577  0.4670  0.0783
24280SOL     OW74280   7.047   0.581   7.064 -0.1597  0.3848  0.0638
24280SOL    HW174281   6.972   0.534   7.028  0.7705 -0.9060 -0.2249
24280SOL    HW274282   7.113   0.514   7.080  0.6401  1.3766  1.1395
24281SOL     OW74283   6.680   4.242   4.240  0.8275 -0.5519 -0.0362
24281SOL    HW174284   6.733   4.317   4.267  0.1624 -0.0176 -0.1953
24281SOL    HW274285   6.612   4.279   4.184  0.3714 -1.2472  0.0446
24282SOL     OW74286   2.549   6.037   5.974 -0.4274 -0.4659 -0.1478
24282SOL    HW174287   2.478   6.091   6.008  0.7798  1.7349 -0.9435
24282SOL    HW274288   2.582   5.989   6.051 -1.2703  0.2496  0.6772
24283SOL     OW74289   2.574   2.998   0.980 -0.3657 -0.0980  0.0075
24283SOL    HW174290   2.593   3.010   1.073  1.3116 -0.9583 -0.1979
24283SOL    HW274291   2.521   3.075   0.957 -4.6896 -1.8853  2.6162
24284SOL     OW74292   6.137   7.330   2.937 -0.1080  0.2032 -0.0752
24284SOL    HW174293   6.054   7.372   2.960  0.3992  0.1798  2.0047
24284SOL    HW274294   6.114   7.238   2.922 -0.7656  0.5998 -1.7729
24285SOL     OW74295   4.650   2.402   4.274 -0.1320 -0.1849  0.0161
24285SOL    HW174296   4.571   2.385   4.325  0.2773 -0.6791  0.4989
24285SOL    HW274297   4.722   2.379   4.333  0.3867  0.5765 -0.2970
24286SOL     OW74298   6.752   4.111   7.787  0.1618  0.3944 -0.1453
24286SOL    HW174299   6.827   4.109   7.847  0.1420  0.8667 -0.0991
24286SOL    HW274300   6.786   4.073   7.706 -0.0494 -1.0523  0.4072
24287SOL     OW74301   0.454   0.284   0.686  0.4102  0.1923  0.2801
24287SOL    HW174302   0.432   0.289   0.593  1.3684  0.6402  0.0584
24287SOL    HW274303   0.434   0.194   0.711 -1.0192  0.3978 -0.0376
24288SOL     OW74304   7.646   1.801   0.377 -0.2376 -0.1478 -0.2638
24288SOL    HW174305   7.740   1.790   0.389 -0.1071  0.1876 -0.9184
24288SOL    HW274306   7.625   1.750   0.299 -0.4106  0.5514 -0.6938
24289SOL     OW74307   4.759   1.585   9.833  0.1739 -0.8157  0.3413
24289SOL    HW174308   4.777   1.495   9.806  1.7096 -0.6520  0.7142
24289SOL    HW274309   4.839   1.633   9.813 -0.3645  0.3199  0.7988
24290SOL     OW74310   2.852   3.426   4.499  0.0414 -0.4135  0.0162
24290SOL    HW174311   2.867   3.337   4.467 -0.7738 -0.5872  0.1017
24290SOL    HW274312   2.767   3.450   4.464  0.3241  0.4012 -0.1354
24291SOL     OW74313   2.678   2.812   4.839  0.0756  0.2201  0.0597
24291SOL    HW174314   2.763   2.796   4.799 -0.2243  2.2183 -1.5416
24291SOL    HW274315   2.632   2.868   4.777 -1.0832  2.1109  2.4402
24292SOL     OW74316   2.426   7.314   0.454 -0.3630 -0.9195  0.0260
24292SOL    HW174317   2.476   7.269   0.522  0.4690 -1.1355 -0.7097
24292SOL    HW274318   2.492   7.364   0.405 -1.0277 -0.3219 -0.2740
24293SOL     OW74319   6.825   4.810   2.059 -0.6326 -0.1154 -1.0471
24293SOL    HW174320   6.871   4.735   2.022  0.0754  1.3818 -3.4042
24293SOL    HW274321   6.737   4.805   2.022  0.1769  1.5761 -3.4434
24294SOL     OW74322   3.061   1.776   8.798  0.7290 -0.6891 -0.0592
24294SOL    HW174323   3.018   1.709   8.851 -0.1372 -0.6405 -0.6860
24294SOL    HW274324   3.029   1.762   8.709  1.5408 -0.2597 -0.4353
24295SOL     OW74325   1.017   6.396   5.944  0.0884  0.1185 -0.1796
24295SOL    HW174326   1.074   6.427   5.873  2.3004  1.9390  2.1748
24295SOL    HW274327   0.943   6.457   5.944  1.0644  1.3608  0.2247
24296SOL     OW74328   7.327   5.435  10.611  0.5819 -0.1936  0.0000
24296SOL    HW174329   7.267   5.509  10.617 -1.4505 -1.6353 -1.2154
24296SOL    HW274330   7.274   5.359  10.634  2.2751 -1.4284  0.0455
24297SOL     OW74331   3.962   2.425   2.195 -0.6187  0.5655 -0.1853
24297SOL    HW174332   4.029   2.443   2.261 -0.8147 -0.3446  0.2765
24297SOL    HW274333   4.011   2.392   2.120 -0.5042  0.3888 -0.0339
24298SOL     OW74334   0.430   5.667   1.236 -0.4002  0.0322  0.0767
24298SOL    HW174335   0.337   5.645   1.238 -1.1962  2.6604 -1.6799
24298SOL    HW274336   0.453   5.665   1.143  0.5523  1.9213  0.2171
24299SOL     OW74337   4.406   6.823   3.920 -0.2849 -0.2993  0.0115
24299SOL    HW174338   4.435   6.777   3.999  0.6921  1.3179  0.6477
24299SOL    HW274339   4.311   6.817   3.922 -0.2766 -0.2178  1.3635
24300SOL     OW74340   1.274   6.574   4.346  0.9233  0.5757  0.1874
24300SOL    HW174341   1.203   6.637   4.360  0.2507 -0.3543  1.1069
24300SOL    HW274342   1.234   6.489   4.361  1.8936 -0.0701 -0.7411
24301SOL     OW74343   3.047   5.403  11.417 -0.5340  0.7920  0.2802
24301SOL    HW174344   2.986   5.329  11.414 -0.1176  0.4568 -0.0870
24301SOL    HW274345   3.001   5.474  11.373 -0.6728  0.5459  0.0218
24302SOL     OW74346   6.322   2.424  10.269  0.5186  0.0402 -0.3136
24302SOL    HW174347   6.272   2.461  10.197 -1.6503 -0.5974  0.7665
24302SOL    HW274348   6.297   2.477  10.345  2.2880  0.3317  0.0962
24303SOL     OW74349   7.093   7.892   7.055  0.0540 -0.0433  0.0515
24303SOL    HW174350   7.135   7.888   6.969  0.3400  0.4291  0.1691
24303SOL    HW274351   7.097   7.802   7.088  0.4094 -0.1241 -0.2049
24304SOL     OW74352   3.787   2.785  10.088 -0.1313 -0.4624  0.1519
24304SOL    HW174353   3.748   2.778  10.175 -0.4142  3.0711  0.4632
24304SOL    HW274354   3.712   2.781  10.028 -0.5328  1.5625  0.4439
24305SOL     OW74355   3.959   4.986   6.618  0.0897 -0.0760  0.1314
24305SOL    HW174356   4.023   4.918   6.639  0.7263  0.7194  0.8431
24305SOL    HW274357   3.965   5.048   6.690 -0.3056  0.8678 -0.6213
24306SOL     OW74358   0.491   6.217   2.952  0.1136 -0.1683 -0.4332
24306SOL    HW174359   0.564   6.159   2.930  1.2612  0.4612  1.4691
24306SOL    HW274360   0.485   6.213   3.047 -1.2759  1.1036 -0.4265
24307SOL     OW74361   4.768   7.318   5.862 -0.2673  0.0058  0.4361
24307SOL    HW174362   4.831   7.389   5.848  1.4824 -1.4645  0.5505
24307SOL    HW274363   4.765   7.307   5.957 -0.3764 -0.2048  0.4085
24308SOL     OW74364   2.842   1.063  10.842  0.4414  0.1512 -0.3398
24308SOL    HW174365   2.852   0.991  10.780  0.2838  0.8849 -1.2511
24308SOL    HW274366   2.878   1.030  10.924  0.8982 -0.7586 -0.8896
24309SOL     OW74367   1.923   6.152   4.014 -0.3629 -0.0161  1.0818
24309SOL    HW174368   1.837   6.174   4.051 -1.2124 -1.1655 -0.0997
24309SOL    HW274369   1.936   6.219   3.946 -0.8661 -0.4708  0.5176
24310SOL     OW74370   1.998   7.253   5.539  0.4329 -0.6758 -0.0792
24310SOL    HW174371   1.966   7.329   5.589 -0.4070  0.3678 -2.0753
24310SOL    HW274372   1.968   7.177   5.589  1.1934  0.2669  1.9148
24311SOL     OW74373   6.310   1.533   5.042 -0.2306 -0.3860  0.1536
24311SOL    HW174374   6.275   1.570   5.123 -0.8495 -2.6972  1.0185
24311SOL    HW274375   6.255   1.456   5.025  0.7689 -0.7555 -1.7017
24312SOL     OW74376   3.309   0.251   2.658 -0.0872  0.1468  0.1230
24312SOL    HW174377   3.388   0.294   2.624 -1.0771  0.2044 -2.3648
24312SOL    HW274378   3.240   0.277   2.597 -1.7155 -1.1072  1.3448
24313SOL     OW74379   6.740   4.968   1.672 -0.0141 -0.1210 -0.0513
24313SOL    HW174380   6.805   5.034   1.696 -0.2266  0.8713 -1.9520
24313SOL    HW274381   6.778   4.885   1.700  1.5986  0.5374 -0.1739
24314SOL     OW74382   6.198   6.999   9.042 -0.3647 -0.5456 -0.0645
24314SOL    HW174383   6.150   7.081   9.034  0.7187  0.3060  1.6531
24314SOL    HW274384   6.203   6.966   8.952 -0.4217  1.4974 -0.8723
24315SOL     OW74385   4.132   7.504   4.133 -0.1737 -0.0721  0.2003
24315SOL    HW174386   4.154   7.485   4.224  1.1742 -0.5691 -0.2006
24315SOL    HW274387   4.057   7.564   4.138  0.9796  1.3487  1.6824
24316SOL     OW74388   7.804   3.357  10.286 -0.5950  0.0656 -0.4260
24316SOL    HW174389   7.842   3.317  10.364  0.6244 -0.3258 -1.1851
24316SOL    HW274390   7.712   3.371  10.308 -0.2145  0.2425  1.1718
24317SOL     OW74391   3.414   5.230   6.507 -0.3299 -0.1035 -0.0421
24317SOL    HW174392   3.425   5.214   6.414 -0.0986  0.7127 -0.1622
24317SOL    HW274393   3.486   5.289   6.530 -0.0168 -0.7915  0.7850
24318SOL     OW74394   3.010   1.177   4.501 -0.9079 -0.5037 -0.4580
24318SOL    HW174395   3.096   1.219   4.500 -0.8921 -0.5363 -0.4842
24318SOL    HW274396   2.995   1.154   4.593 -0.9676 -0.3376 -0.4265
24319SOL     OW74397   1.101   5.168   8.910 -0.0298 -0.4256  0.2324
24319SOL    HW174398   1.145   5.099   8.860 -0.6460 -0.8744  0.2995
24319SOL    HW274399   1.014   5.174   8.872  0.0912  0.4768  0.0863
24320SOL     OW74400   7.111   3.394   3.351 -0.2098  0.0196  0.0541
24320SOL    HW174401   7.045   3.424   3.414  0.2779  0.6924  0.2459
24320SOL    HW274402   7.107   3.458   3.280  0.3985  0.1916  0.1712
24321SOL     OW74403   6.474   1.412   4.228 -0.0578 -0.2809 -0.4118
24321SOL    HW174404   6.501   1.479   4.165 -0.9593 -0.7799 -1.3562
24321SOL    HW274405   6.477   1.330   4.178 -1.3148 -0.6140  0.0283
24322SOL     OW74406   0.274   2.078   9.046 -0.4608 -0.1232 -0.2134
24322SOL    HW174407   0.311   2.109   9.129  0.2520  1.0072 -0.9277
24322SOL    HW274408   0.248   2.158   9.000 -0.2278 -0.6877 -1.3634
24323SOL     OW74409   5.596   4.792   6.814  0.1866 -0.3829 -0.5873
24323SOL    HW174410   5.542   4.730   6.863 -0.5205  0.6308 -0.0338
24323SOL    HW274411   5.538   4.866   6.798  0.6739 -0.3265 -2.2140
24324SOL     OW74412   0.266   4.256   7.270  0.3292  0.2686  0.1025
24324SOL    HW174413   0.247   4.307   7.192 -0.2848 -1.0899 -0.6604
24324SOL    HW274414   0.200   4.282   7.334  0.9139  1.4765  0.2349
24325SOL     OW74415   3.832   7.791   5.638  0.2841  0.0399  0.2651
24325SOL    HW174416   3.850   7.868   5.692 -1.0489  0.6357 -0.0964
24325SOL    HW274417   3.755   7.751   5.678 -0.7802  0.5305 -1.1763
24326SOL     OW74418   6.350   4.377   1.038 -0.3573 -0.0649 -0.6803
24326SOL    HW174419   6.384   4.290   1.059  0.7619  0.5677  0.2359
24326SOL    HW274420   6.312   4.367   0.951  1.9390 -0.9121 -1.6674
24327SOL     OW74421   2.785   6.576   4.890  0.2775  0.3636  0.2133
24327SOL    HW174422   2.771   6.596   4.797  0.0077  0.8257  0.3494
24327SOL    HW274423   2.717   6.626   4.935 -1.8327 -2.4884  0.4406
24328SOL     OW74424   7.502   5.186   9.466 -0.6774 -0.5152  0.0597
24328SOL    HW174425   7.565   5.237   9.517 -0.6982 -0.7123  0.2838
24328SOL    HW274426   7.553   5.151   9.393 -0.9937  1.1393 -1.0126
24329SOL     OW74427   7.239   0.277   9.135  0.1328  0.8507  0.2467
24329SOL    HW174428   7.154   0.298   9.095  0.0491  1.6357  0.8224
24329SOL    HW274429   7.233   0.184   9.158 -0.0643  0.5542 -0.9466
24330SOL     OW74430   4.579   5.637   9.075  0.2980 -0.1515  0.4736
24330SOL    HW174431   4.588   5.681   9.160  0.2713 -1.4327  1.1628
24330SOL    HW274432   4.665   5.599   9.058  0.7017  1.2039 -0.7470
24331SOL     OW74433   7.744   5.743   4.177 -0.0074  0.4937  0.1470
24331SOL    HW174434   7.754   5.755   4.271 -0.1629 -0.4756  0.2941
24331SOL    HW274435   7.662   5.788   4.156 -0.4765 -0.1010  0.6504
24332SOL     OW74436   6.238   4.941   9.026 -0.5327  0.0938 -0.0158
24332SOL    HW174437   6.143   4.941   9.035 -0.4774 -0.0721  0.6347
24332SOL    HW274438   6.267   5.023   9.064 -0.3627 -0.1884  0.4773
24333SOL     OW74439   5.374   1.397   7.929 -0.1865 -0.2767 -0.0209
24333SOL    HW174440   5.429   1.457   7.879  0.4649 -1.3809 -0.6719
24333SOL    HW274441   5.402   1.409   8.020  1.1775 -0.8174 -0.3348
24334SOL     OW74442   1.584   7.794   1.069 -1.5723  0.0934  0.5633
24334SOL    HW174443   1.676   7.785   1.044 -1.5754  0.0280  0.5733
24334SOL    HW274444   1.535   7.761   0.993 -1.6105  0.9023  0.2222
24335SOL     OW74445   3.391   4.113   4.302  0.0500  0.2609 -0.1097
24335SOL    HW174446   3.481   4.144   4.306  0.1373 -0.0177  0.0969
24335SOL    HW274447   3.397   4.019   4.317 -0.1234 -0.0229 -1.6879
24336SOL     OW74448   1.511   4.675   4.933 -0.3611  0.3399 -0.5960
24336SOL    HW174449   1.538   4.628   4.854 -2.4399 -0.2772 -1.0039
24336SOL    HW274450   1.590   4.681   4.986  0.2904 -2.4739 -1.1168
24337SOL     OW74451   0.582   1.076   0.956  0.1635 -0.3913 -0.0374
24337SOL    HW174452   0.504   1.021   0.961 -1.5870  2.0344  2.3254
24337SOL    HW274453   0.598   1.085   0.862 -1.7824 -1.7682 -0.5912
24338SOL     OW74454   0.620   5.731   9.830  0.0026 -0.2401 -0.4929
24338SOL    HW174455   0.533   5.764   9.808 -0.1813 -1.5819 -1.9899
24338SOL    HW274456   0.613   5.637   9.817  2.5667 -0.1330 -4.3140
24339SOL     OW74457   0.971   5.246   4.581 -0.0265  0.0949 -0.0705
24339SOL    HW174458   0.922   5.317   4.540  0.3238  0.4459  0.1168
24339SOL    HW274459   1.027   5.213   4.511  1.8142  1.7943  0.5020
24340SOL     OW74460   4.752   3.751  10.510 -0.6075  0.0982  0.1653
24340SOL    HW174461   4.775   3.659  10.524  0.3349  0.1408 -0.9712
24340SOL    HW274462   4.781   3.769  10.420 -1.1735  1.3876  0.2317
24341SOL     OW74463   6.661   4.378   1.082 -0.2721 -0.3214  0.4007
24341SOL    HW174464   6.628   4.376   0.992  2.1154 -1.5061 -0.5191
24341SOL    HW274465   6.645   4.289   1.115  0.2992 -0.3559  0.5880
24342SOL     OW74466   1.162   5.724   5.007 -0.3653  0.3045 -0.7540
24342SOL    HW174467   1.152   5.636   5.045  1.0614  0.5218  0.2304
24342SOL    HW274468   1.156   5.710   4.913  1.4935 -1.1505 -0.7231
24343SOL     OW74469   5.174   1.076   1.250  0.5075 -0.2509  0.5545
24343SOL    HW174470   5.264   1.045   1.261  1.5500  2.3628  0.0269
24343SOL    HW274471   5.167   1.100   1.158  0.2150  2.1684  1.1457
24344SOL     OW74472   7.510   5.937   3.111  0.0240  1.2998 -0.5944
24344SOL    HW174473   7.595   5.920   3.152  0.7025  0.0818 -2.3674
24344SOL    HW274474   7.448   5.883   3.160  0.7344  0.2061 -0.8817
24345SOL     OW74475   6.874   3.481   3.444 -0.3198 -0.0002 -0.3750
24345SOL    HW174476   6.857   3.456   3.354 -0.8135 -0.0595 -0.2685
24345SOL    HW274477   6.794   3.459   3.491 -0.9548  2.1403 -0.3434
24346SOL     OW74478   0.238   0.055   5.720 -0.1559 -0.3648 -0.0495
24346SOL    HW174479   0.267   0.135   5.677  0.7734 -0.9256 -0.4859
24346SOL    HW274480   0.295  -0.013   5.685  1.6601 -0.6620  3.1450
24347SOL     OW74481   3.069   7.367   6.692  0.7228 -0.8971 -0.5995
24347SOL    HW174482   3.074   7.303   6.621 -1.0330 -1.3743 -0.3467
24347SOL    HW274483   3.088   7.317   6.771 -2.5078 -1.6658 -0.1690
24348SOL     OW74484   5.306   7.315   7.146  0.5372  0.3441  0.5481
24348SOL    HW174485   5.349   7.387   7.098  1.5564  0.2759  1.3214
24348SOL    HW274486   5.219   7.349   7.166  0.9435  1.3149  0.7610
24349SOL     OW74487   2.928   6.443   3.607 -0.0478  0.1049 -0.2278
24349SOL    HW174488   2.838   6.416   3.588 -0.0919  1.3225 -1.9476
24349SOL    HW274489   2.976   6.361   3.617 -1.2339 -0.5673  0.2616
24350SOL     OW74490   4.132   7.242   9.913  0.0237 -0.1723  0.1054
24350SOL    HW174491   4.066   7.299   9.954  0.4260  0.3520  0.0416
24350SOL    HW274492   4.084   7.164   9.886 -0.4708 -0.0141  0.5226
24351SOL     OW74493   5.372   0.081   6.436  0.0015  0.1099 -0.2103
24351SOL    HW174494   5.415   0.010   6.388  0.5958 -0.4194  1.0559
24351SOL    HW274495   5.279   0.066   6.421  0.1825  0.2043 -1.5160
24352SOL     OW74496   6.971   3.027   4.816 -0.0249 -0.0732  0.4486
24352SOL    HW174497   7.003   3.110   4.780 -1.3958 -0.0497 -0.8034
24352SOL    HW274498   7.049   2.973   4.823  0.7717  1.0510  0.5528
24353SOL     OW74499   7.857   6.167   9.374  0.7369  0.3071  0.5895
24353SOL    HW174500   7.940   6.185   9.331  1.2080  0.1275  1.3868
24353SOL    HW274501   7.799   6.238   9.347  1.0876  0.3235 -0.1278
24354SOL     OW74502   7.881   4.104   0.649 -0.3497 -0.3432  0.7168
24354SOL    HW174503   7.962   4.147   0.622 -0.5719  0.6835  1.6178
24354SOL    HW274504   7.846   4.160   0.719 -1.3772 -1.2458  0.9542
24355SOL     OW74505   2.752   3.140  10.469  0.1421 -0.2087 -0.3705
24355SOL    HW174506   2.724   3.141  10.378 -1.5385 -0.9496  0.0984
24355SOL    HW274507   2.822   3.205  10.473 -0.3082  0.4375 -2.0176
24356SOL     OW74508   3.781   5.397   7.446 -0.0700  0.6185  0.4210
24356SOL    HW174509   3.732   5.334   7.393 -1.3285  1.4587  0.5550
24356SOL    HW274510   3.760   5.482   7.408  2.9452  0.9287 -0.8574
24357SOL     OW74511   0.659   6.384   7.316  0.3730 -0.3767  0.1528
24357SOL    HW174512   0.645   6.387   7.221 -1.2278 -0.3989  0.3650
24357SOL    HW274513   0.579   6.345   7.351  0.9667 -0.4138  1.5184
24358SOL     OW74514   2.361   4.792  11.979  0.6923 -0.0441 -0.3549
24358SOL    HW174515   2.367   4.842  12.060  2.1906 -0.4230 -0.2027
24358SOL    HW274516   2.409   4.711  11.997  0.8736 -0.2255 -1.5464
24359SOL     OW74517   7.710   2.029   0.074 -0.2381 -0.0508  0.2348
24359SOL    HW174518   7.715   2.083   0.153  0.2879 -0.1547  0.2786
24359SOL    HW274519   7.771   2.071   0.013  0.2945 -0.6790  0.3263
24360SOL     OW74520   5.800   0.096   4.140  0.0720  0.3558 -0.0535
24360SOL    HW174521   5.783   0.117   4.232  0.1517  1.2899 -0.2426
24360SOL    HW274522   5.820   0.003   4.140 -0.4495  0.2293  0.8074
24361SOL     OW74523   4.667   3.917   2.841 -0.2267  0.2987 -0.3232
24361SOL    HW174524   4.665   3.942   2.934 -2.4886  0.2068 -0.2945
24361SOL    HW274525   4.629   3.829   2.839 -0.0089  0.2183 -1.3279
24362SOL     OW74526   6.250   6.035  10.856  0.5901 -0.8642  0.5374
24362SOL    HW174527   6.155   6.030  10.845  0.7598 -0.3122 -1.7489
24362SOL    HW274528   6.265   6.114  10.907 -0.1908 -1.1290  1.1886
24363SOL     OW74529   6.863   0.709   8.150 -0.0070  0.0343 -0.3654
24363SOL    HW174530   6.845   0.803   8.149 -0.9017 -0.1208 -0.4183
24363SOL    HW274531   6.890   0.688   8.060 -1.3387 -0.0144 -0.7776
24364SOL     OW74532   4.626   3.307   8.282 -0.0638  0.9528 -0.6605
24364SOL    HW174533   4.603   3.328   8.372 -1.3636  2.1495 -1.2473
24364SOL    HW274534   4.582   3.373   8.229 -1.4539 -1.1766 -2.3612
24365SOL     OW74535   0.209   6.189   5.351 -0.1723  0.2204  0.3198
24365SOL    HW174536   0.232   6.282   5.352  0.2267  0.1217  0.9756
24365SOL    HW274537   0.293   6.144   5.342 -0.5251 -0.0589 -3.1622
24366SOL     OW74538   4.877   2.175   8.448 -0.0566 -0.3623 -0.0023
24366SOL    HW174539   4.893   2.239   8.517 -1.0539  1.0750 -1.0590
24366SOL    HW274540   4.908   2.217   8.368  0.6915 -1.8287 -0.5138
24367SOL     OW74541   7.926   1.739  11.250 -0.6045 -0.2370 -0.0542
24367SOL    HW174542   7.870   1.695  11.187 -1.2022 -0.7805  0.8324
24367SOL    HW274543   7.916   1.689  11.331  2.6455 -1.5533 -0.3042
24368SOL     OW74544   5.421   1.635  10.332 -0.0051 -0.1223 -0.5001
24368SOL    HW174545   5.493   1.613  10.273  1.4419 -1.0201  1.5010
24368SOL    HW274546   5.419   1.731  10.332  1.5434 -0.0756 -0.1910
24369SOL     OW74547   2.769   1.951   9.684 -0.2365 -0.7510  0.5737
24369SOL    HW174548   2.752   2.043   9.665 -1.1465 -0.5807  2.0472
24369SOL    HW274549   2.864   1.944   9.688  0.0442 -0.5979 -2.6573
24370SOL     OW74550   4.469   7.596   1.352 -0.6117 -0.1669 -0.5366
24370SOL    HW174551   4.383   7.570   1.318  0.0930 -1.3442 -1.5059
24370SOL    HW274552   4.451   7.628   1.441 -2.0333 -0.4978 -0.6866
24371SOL     OW74553   1.322   6.590   1.420 -0.6812 -0.1159  0.4064
24371SOL    HW174554   1.372   6.664   1.456  1.2527 -0.6409 -1.0205
24371SOL    HW274555   1.323   6.525   1.490  1.8724 -0.6202 -0.0080
24372SOL     OW74556   6.941   4.120   2.399  0.1168 -0.1182  0.1280
24372SOL    HW174557   6.861   4.165   2.373  0.9482  0.4939 -1.4629
24372SOL    HW274558   7.005   4.144   2.333  1.6831 -0.4537  1.4639
24373SOL     OW74559   3.001   2.580   2.155 -0.0065 -0.0787 -0.0031
24373SOL    HW174560   2.984   2.488   2.134 -2.9255 -0.5352  3.2957
24373SOL    HW274561   3.003   2.624   2.070 -2.2362 -2.7003 -1.6100
24374SOL     OW74562   7.781   7.735   0.935  0.2731 -0.2905 -0.0359
24374SOL    HW174563   7.699   7.743   0.887 -0.2598 -2.0982  0.5108
24374SOL    HW274564   7.849   7.758   0.871 -0.5845  0.4044 -0.7241
24375SOL     OW74565   1.000   4.261   1.860 -0.2433  0.3181 -0.9865
24375SOL    HW174566   0.921   4.263   1.805 -0.3064  2.5100 -0.9049
24375SOL    HW274567   0.972   4.298   1.944  0.5263 -0.3333 -0.4233
24376SOL     OW74568   2.652   5.624  10.979  0.0331  0.4988  0.2501
24376SOL    HW174569   2.704   5.557  11.024 -0.3028  1.5760  2.3614
24376SOL    HW274570   2.562   5.595  10.990  0.0229 -0.2169 -1.4756
24377SOL     OW74571   5.755   0.244  11.462 -0.1357 -0.0289  0.3157
24377SOL    HW174572   5.672   0.274  11.499 -0.1135 -0.4170  0.6937
24377SOL    HW274573   5.808   0.323  11.456 -0.6284  0.2742 -0.2017
24378SOL     OW74574   2.954   0.426   4.225  0.3181  0.2627 -0.0879
24378SOL    HW174575   2.888   0.440   4.293  0.1403 -1.1711  0.0737
24378SOL    HW274576   2.990   0.339   4.244  2.5805  1.1906  0.0679
24379SOL     OW74577   7.852   0.480   6.339 -0.3003 -0.9034 -0.0523
24379SOL    HW174578   7.905   0.530   6.277 -0.1645  0.7699  1.3182
24379SOL    HW274579   7.773   0.533   6.351  0.3468 -0.3476  2.3137
24380SOL     OW74580   6.185   3.409   4.658  0.8966 -0.1043  0.1753
24380SOL    HW174581   6.222   3.419   4.745  1.4663 -0.1502 -0.0571
24380SOL    HW274582   6.181   3.498   4.623  0.3075 -0.0427  0.3901
24381SOL     OW74583   1.670   0.118   8.858 -0.2653 -0.3711 -0.2238
24381SOL    HW174584   1.647   0.211   8.853 -1.4246 -0.6913 -1.4247
24381SOL    HW274585   1.766   0.118   8.856 -0.2030  0.8210  0.8094
24382SOL     OW74586   3.640   0.071   2.718 -0.0904 -0.4550  0.1289
24382SOL    HW174587   3.731   0.041   2.717  0.2637  0.5778  0.2369
24382SOL    HW274588   3.646   0.165   2.705 -1.2199 -0.5106 -0.9121
24383SOL     OW74589   4.810   0.753   0.319  0.6209 -0.1863  0.0375
24383SOL    HW174590   4.906   0.759   0.320  0.5394  1.6872  0.2337
24383SOL    HW274591   4.781   0.833   0.362 -1.0633  0.2506 -1.7967
24384SOL     OW74592   2.855   7.504   6.754 -0.2120  0.2051  0.0030
24384SOL    HW174593   2.796   7.505   6.679 -1.9460  1.4716  1.3025
24384SOL    HW274594   2.934   7.460   6.722 -0.5042  1.5124 -2.8396
24385SOL     OW74595   0.371   2.657   3.229  0.0615 -0.6682  0.2102
24385SOL    HW174596   0.358   2.733   3.286  0.8989 -0.0365 -0.4337
24385SOL    HW274597   0.440   2.607   3.272  0.5068 -0.3285 -0.1048
24386SOL     OW74598   5.566   0.586  11.064 -0.1829 -0.4419  0.1406
24386SOL    HW174599   5.571   0.509  11.120  0.4102 -0.3957  0.1562
24386SOL    HW274600   5.472   0.597  11.047 -0.2560 -1.3584 -0.1350
24387SOL     OW74601   5.132   3.955   1.691 -0.0764 -0.2295  0.1763
24387SOL    HW174602   5.039   3.966   1.708 -0.6850 -0.5553 -2.5454
24387SOL    HW274603   5.175   4.011   1.756 -2.1738  0.3469  1.1403
24388SOL     OW74604   5.870   7.346   3.277 -0.9107 -0.2513 -0.1459
24388SOL    HW174605   5.913   7.274   3.323  0.6104 -0.3752 -1.6440
24388SOL    HW274606   5.784   7.311   3.253 -1.4367 -0.4323  1.8740
24389SOL     OW74607   0.165   3.916   5.898 -0.3575  0.4858  0.6029
24389SOL    HW174608   0.219   3.988   5.930  0.4800 -0.0114  0.3295
24389SOL    HW274609   0.191   3.840   5.951 -0.9544  0.2848  0.6254
24390SOL     OW74610   5.587   5.982   3.450 -0.3506  0.2713  0.3449
24390SOL    HW174611   5.552   6.043   3.515 -0.1516  0.5676  0.1794
24390SOL    HW274612   5.514   5.966   3.390 -0.0395  1.4103 -0.3815
24391SOL     OW74613   0.680   5.027   2.638 -0.5550  0.7560  0.1343
24391SOL    HW174614   0.723   5.025   2.552 -1.5256  1.5868 -0.4010
24391SOL    HW274615   0.602   5.081   2.624 -2.4283 -1.6022  0.7613
24392SOL     OW74616   6.815   4.513  11.136 -0.0298 -0.1221  0.4074
24392SOL    HW174617   6.855   4.581  11.191  0.2645  0.0386  0.0001
24392SOL    HW274618   6.768   4.562  11.068  0.6205 -0.3231 -0.1966
24393SOL     OW74619   2.044   3.901   7.383 -0.1356  0.8270  0.3396
24393SOL    HW174620   1.997   3.938   7.308 -2.1914  0.3770  1.3404
24393SOL    HW274621   2.107   3.969   7.408  0.3513  1.1204 -1.5487
24394SOL     OW74622   7.868   6.654  12.118 -0.5176 -0.1561 -0.1488
24394SOL    HW174623   7.871   6.749  12.131 -0.5473 -0.2580  0.6933
24394SOL    HW274624   7.931   6.619  12.182  0.8612 -0.6101 -1.6848
24395SOL     OW74625   5.942   7.808   7.328 -0.5686 -0.1260 -0.0286
24395SOL    HW174626   5.850   7.832   7.338 -0.4357  0.5578 -0.3823
24395SOL    HW274627   5.986   7.850   7.402 -0.5917 -0.8042  0.3841
24396SOL     OW74628   4.949   3.858   8.177 -0.0018 -0.0974  0.4558
24396SOL    HW174629   4.889   3.932   8.177  1.9404  1.5601  1.3101
24396SOL    HW274630   4.950   3.828   8.268  0.6590  0.0677  0.5079
24397SOL     OW74631   0.968   1.241   3.167 -0.2431  0.0830 -0.3048
24397SOL    HW174632   1.052   1.280   3.191 -0.1743 -1.4974  2.4588
24397SOL    HW274633   0.990   1.151   3.143 -1.1319 -0.3490  0.4639
24398SOL     OW74634   6.285   5.060   0.367 -0.0205 -0.2142 -0.5576
24398SOL    HW174635   6.236   5.068   0.285  1.8987 -0.8691 -1.8408
24398SOL    HW274636   6.320   4.970   0.366  1.6578  0.3864 -0.0067
24399SOL     OW74637   3.164   3.090  10.422 -0.2964 -0.5727  0.3629
24399SOL    HW174638   3.153   3.095  10.517 -0.0082  1.3667  0.3360
24399SOL    HW274639   3.106   3.159  10.388 -0.1396 -1.0169 -0.8502
24400SOL     OW74640   0.662   4.026   4.888  0.1165 -0.0148  0.2482
24400SOL    HW174641   0.690   4.081   4.815  1.1988  0.1654  0.7797
24400SOL    HW274642   0.630   3.946   4.848 -0.1514  0.4407 -0.4633
24401SOL     OW74643   0.341   7.441   4.751  0.1957 -0.0391 -0.0976
24401SOL    HW174644   0.393   7.483   4.819 -0.6016 -0.3437  0.7130
24401SOL    HW274645   0.311   7.513   4.696 -2.5043  0.7369  2.1801
24402SOL     OW74646   0.924   5.937   1.212 -0.0738  0.3121  0.0769
24402SOL    HW174647   0.954   5.926   1.121 -0.3008 -0.1254  0.0517
24402SOL    HW274648   0.921   6.031   1.225 -1.2674  0.4160 -0.7880
24403SOL     OW74649   1.286   2.583   3.033  0.2143 -0.1809  0.1735
24403SOL    HW174650   1.293   2.669   2.990  1.7246  0.0087  0.7415
24403SOL    HW274651   1.245   2.602   3.118  2.5378  0.3867  1.2536
24404SOL     OW74652   5.429   7.111   8.120  0.0035  0.2894 -0.6608
24404SOL    HW174653   5.386   7.138   8.039  0.8611  1.4180 -0.7675
24404SOL    HW274654   5.504   7.060   8.091 -1.8769 -2.8377 -0.4541
24405SOL     OW74655   0.897   2.756   6.801 -0.1731 -0.2954  0.1993
24405SOL    HW174656   0.865   2.841   6.829 -1.6613  0.2072 -2.6239
24405SOL    HW274657   0.838   2.692   6.842 -1.5918  0.3322 -0.7746
24406SOL     OW74658   6.512   6.603   4.578 -0.3149  0.2363  0.0867
24406SOL    HW174659   6.425   6.575   4.606  0.6022 -0.9949  1.9251
24406SOL    HW274660   6.496   6.681   4.524 -2.4925  0.4824  0.9807
24407SOL     OW74661   3.447   3.004  11.414 -0.5398 -0.5657 -0.0841
24407SOL    HW174662   3.466   3.098  11.413 -2.3147 -0.1795 -0.9342
24407SOL    HW274663   3.359   2.998  11.452  0.4127 -2.1105  2.0669
24408SOL     OW74664   5.777   3.043   9.701  0.4207  0.1907 -0.1097
24408SOL    HW174665   5.726   2.963   9.698  0.5247  0.0971  0.5131
24408SOL    HW274666   5.725   3.107   9.652 -0.4436  0.1855  0.7780
24409SOL     OW74667   0.181   4.957  11.055  0.0780 -0.1920 -0.3340
24409SOL    HW174668   0.107   4.917  11.009  0.3164  1.6543 -2.5425
24409SOL    HW274669   0.258   4.915  11.015  0.2634 -0.3511  0.1883
24410SOL     OW74670   7.284   1.440   8.235 -0.2046 -0.3558  0.6655
24410SOL    HW174671   7.188   1.439   8.228 -0.1552  0.3378 -0.3487
24410SOL    HW274672   7.314   1.453   8.145  0.8003  0.6662  1.1216
24411SOL     OW74673   1.852   7.352   3.812 -0.1178  0.5871 -0.3851
24411SOL    HW174674   1.922   7.388   3.867 -1.4674  2.7896  0.0024
24411SOL    HW274675   1.796   7.304   3.873 -0.2170  0.8238 -0.2906
24412SOL     OW74676   3.148   5.330   0.429  0.4170 -0.2924 -0.4428
24412SOL    HW174677   3.174   5.248   0.469 -0.1241 -0.8569 -1.2190
24412SOL    HW274678   3.067   5.354   0.474  0.9237  0.1755  0.2444
24413SOL     OW74679   2.751   5.799   1.708 -0.1445 -0.0902  0.1463
24413SOL    HW174680   2.818   5.786   1.641 -0.2531 -0.0353  0.0272
24413SOL    HW274681   2.796   5.846   1.778 -0.3494  1.0178 -0.4344
24414SOL     OW74682   6.758   0.046  12.337  0.5885  0.3386  0.4499
24414SOL    HW174683   6.691   0.025  12.403 -0.6308 -1.4408 -1.2318
24414SOL    HW274684   6.831   0.082  12.387 -1.0601  0.9817  2.5307
24415SOL     OW74685   3.665   3.557  10.201  0.6016 -0.0871 -0.3863
24415SOL    HW174686   3.686   3.495  10.131  0.2379 -0.9265  0.2313
24415SOL    HW274687   3.575   3.584  10.182 -0.4000 -2.1578  1.0406
24416SOL     OW74688   6.309   3.313   4.010 -0.1340  0.3536 -1.0643
24416SOL    HW174689   6.244   3.383   4.017  0.1687  0.6047 -0.6974
24416SOL    HW274690   6.332   3.311   3.917 -1.7038 -0.7026 -1.4633
24417SOL     OW74691   1.612   5.040   0.182  0.2656  0.0223  0.0134
24417SOL    HW174692   1.594   4.995   0.265  1.8212  1.1417  1.0124
24417SOL    HW274693   1.527   5.076   0.156 -0.0587  0.6722  1.7736
24418SOL     OW74694   7.041   2.451   7.530  0.2298  0.1654 -0.1841
24418SOL    HW174695   7.086   2.404   7.459  0.4153  2.1980 -1.5010
24418SOL    HW274696   6.954   2.470   7.494 -0.2236 -0.1010  0.7419
24419SOL     OW74697   5.082   6.698   4.278 -0.1259  0.1405  0.1230
24419SOL    HW174698   5.103   6.616   4.322  1.1427 -1.0734 -2.4719
24419SOL    HW274699   4.996   6.683   4.239 -0.8833  0.9030  1.4584
24420SOL     OW74700   6.797   0.205   3.767 -0.2963  0.2195  0.3417
24420SOL    HW174701   6.800   0.170   3.856  1.4513  1.4758  0.8290
24420SOL    HW274702   6.802   0.127   3.711  2.2492 -0.4945  1.3848
24421SOL     OW74703   1.022   2.863   4.532  0.1554 -0.6031 -0.1022
24421SOL    HW174704   1.055   2.795   4.473 -2.4259  0.6631 -3.3910
24421SOL    HW274705   1.081   2.937   4.518 -0.6537 -0.1822 -1.5639
24422SOL     OW74706   7.367   3.946   4.514  0.1364 -0.1370  0.2525
24422SOL    HW174707   7.360   4.037   4.542  1.1966  0.9454 -2.6178
24422SOL    HW274708   7.279   3.910   4.528 -0.9835  2.0265 -0.6027
24423SOL     OW74709   6.380   1.826   2.479  0.0525 -0.3966  0.1462
24423SOL    HW174710   6.418   1.868   2.402  3.5922  0.0825  1.9494
24423SOL    HW274711   6.312   1.887   2.509  0.4961  0.7314 -1.0696
24424SOL     OW74712   4.326   2.751   0.494  0.4654 -0.0878  0.2293
24424SOL    HW174713   4.341   2.743   0.400 -0.2416  0.4379  0.0584
24424SOL    HW274714   4.388   2.817   0.523 -0.2791  0.8115 -0.1493
24425SOL     OW74715   3.477   2.362  12.282 -0.4128 -0.1583  0.0685
24425SOL    HW174716   3.399   2.416  12.268 -0.7823 -0.7121 -0.0358
24425SOL    HW274717   3.471   2.293  12.215 -0.2732 -0.6907  0.5957
24426SOL     OW74718   5.893   2.681   3.354 -0.6204 -0.6426 -0.2249
24426SOL    HW174719   5.956   2.751   3.338 -0.3752 -1.1760 -1.7178
24426SOL    HW274720   5.818   2.704   3.300 -0.2227 -1.9184 -1.3586
24427SOL     OW74721   3.862   6.725   5.451  0.3987  0.7008  0.9280
24427SOL    HW174722   3.951   6.749   5.426  1.2131 -0.6715  2.3265
24427SOL    HW274723   3.872   6.676   5.533 -1.5559 -0.1933  0.6989
24428SOL     OW74724   0.247   6.579   2.145 -0.3791 -0.0725  0.5405
24428SOL    HW174725   0.335   6.593   2.180 -0.0245  0.4176 -0.5000
24428SOL    HW274726   0.191   6.634   2.200 -0.0906 -0.6186  1.4028
24429SOL     OW74727   4.085   2.021   0.502 -0.7788  0.6559  0.2944
24429SOL    HW174728   4.039   2.104   0.504 -0.8703  0.7056 -1.6964
24429SOL    HW274729   4.033   1.966   0.443 -0.5097 -0.6858  1.2744
24430SOL     OW74730   1.643   3.791   6.704 -0.1583 -0.2058  0.0021
24430SOL    HW174731   1.552   3.820   6.697  0.3146  0.9754 -2.2318
24430SOL    HW274732   1.646   3.710   6.653 -0.4173 -1.5515  2.0546
24431SOL     OW74733   4.238   2.996   0.891 -0.2610 -0.0915  0.0005
24431SOL    HW174734   4.248   2.918   0.945  0.1494  0.7199  1.1375
24431SOL    HW274735   4.328   3.024   0.873 -0.4040 -0.1010 -0.7214
24432SOL     OW74736   3.031   4.343   0.691  0.5499  0.4374 -0.0721
24432SOL    HW174737   3.111   4.321   0.739 -0.2355 -0.8235  0.7290
24432SOL    HW274738   2.961   4.296   0.737 -0.4216  0.1177 -1.7490
24433SOL     OW74739   1.647   0.610  11.316  0.7741 -0.1105 -0.3084
24433SOL    HW174740   1.707   0.548  11.356  2.6570 -0.6748 -3.6263
24433SOL    HW274741   1.647   0.685  11.375  3.2523 -0.8678  0.7958
24434SOL     OW74742   6.229   4.588   3.526 -0.3104  0.0619 -0.0620
24434SOL    HW174743   6.322   4.607   3.537 -0.7063  3.0762 -1.0460
24434SOL    HW274744   6.211   4.605   3.434 -1.6249 -1.7713 -0.2058
24435SOL     OW74745   4.483   6.866   4.939  0.1385 -0.0658 -0.7358
24435SOL    HW174746   4.494   6.863   5.034  0.1764 -1.0016 -0.7594
24435SOL    HW274747   4.556   6.921   4.908  1.0444 -1.0180 -0.3438
24436SOL     OW74748   2.668   3.325   3.099 -0.2037  0.1621 -0.1458
24436SOL    HW174749   2.750   3.292   3.063 -0.1746  1.6826 -1.5919
24436SOL    HW274750   2.601   3.264   3.068  0.2264 -0.4819  0.1586
24437SOL     OW74751   5.276   0.342   6.742  0.1083  0.1960  0.6279
24437SOL    HW174752   5.212   0.292   6.691  2.2604 -0.8762 -1.2200
24437SOL    HW274753   5.242   0.432   6.741 -1.3018 -0.3071 -0.3971
24438SOL     OW74754   1.678   1.892  11.871  0.1351  0.5600 -0.2102
24438SOL    HW174755   1.762   1.853  11.895  0.0334  0.4079 -0.1012
24438SOL    HW274756   1.701   1.973  11.826  0.3314  0.9026  0.4827
24439SOL     OW74757   3.674   3.806   1.067 -0.2481 -0.0058  0.2173
24439SOL    HW174758   3.599   3.845   1.021  0.1214  0.2834 -0.1424
24439SOL    HW274759   3.701   3.875   1.129 -1.5766 -0.8708  1.8472
24440SOL     OW74760   1.792   4.691  12.351 -0.2260 -0.1829  0.5354
24440SOL    HW174761   1.800   4.780  12.385 -0.8105 -0.0283  0.2979
24440SOL    HW274762   1.850   4.638  12.405  0.6917  0.4677  0.2117
24441SOL     OW74763   7.833   2.031   1.367 -0.3995 -0.2240  0.7128
24441SOL    HW174764   7.812   2.112   1.413 -1.0934 -0.7212  1.3014
24441SOL    HW274765   7.897   1.987   1.424 -0.7282 -0.5161  0.8588
24442SOL     OW74766   3.170   6.370   3.723  0.0855  0.8812 -0.4126
24442SOL    HW174767   3.164   6.421   3.804 -0.0946 -0.6526  0.5896
24442SOL    HW274768   3.143   6.431   3.654  1.9336  2.7670  0.4251
24443SOL     OW74769   6.380   3.667   2.109  0.5537  0.4248 -0.1206
24443SOL    HW174770   6.417   3.712   2.185 -1.5120  0.0443  1.2121
24443SOL    HW274771   6.358   3.737   2.048  0.4837  0.9206  0.4673
24444SOL     OW74772   2.865   2.197   7.571 -0.0574 -0.3815  0.2327
24444SOL    HW174773   2.831   2.139   7.638 -2.1465  0.3032 -0.1602
24444SOL    HW274774   2.823   2.282   7.588 -0.3427 -0.0837 -1.6311
24445SOL     OW74775   5.880   2.793   2.705 -0.2606  0.3024  0.0241
24445SOL    HW174776   5.820   2.719   2.710 -0.9847  0.5322 -3.1065
24445SOL    HW274777   5.824   2.870   2.712  0.3698  0.6258  2.2488
24446SOL     OW74778   5.408   7.254   8.372 -0.6223 -0.0377 -0.3204
24446SOL    HW174779   5.474   7.203   8.419 -0.4660  1.0557  0.6840
24446SOL    HW274780   5.405   7.214   8.285  0.5683 -0.7959 -0.0392
24447SOL     OW74781   4.834   5.082   0.468 -0.1056  0.2918 -0.2388
24447SOL    HW174782   4.830   5.156   0.529 -2.0128  1.0696 -1.2554
24447SOL    HW274783   4.908   5.102   0.411  0.2108  0.7404  0.3147
24448SOL     OW74784   3.791   3.044  12.035  0.3346  0.1878  0.3461
24448SOL    HW174785   3.862   3.011  12.090 -0.3925 -2.8327 -0.2953
24448SOL    HW274786   3.774   2.972  11.974 -0.7523  2.3172 -2.0130
24449SOL     OW74787   3.666   0.291   7.512  0.1668  0.4913  0.0468
24449SOL    HW174788   3.626   0.263   7.594  0.5735  1.1734  0.4914
24449SOL    HW274789   3.759   0.272   7.523  0.0140 -0.9316 -0.9103
24450SOL     OW74790   2.162   0.558   1.239  0.3783  0.3938 -0.4712
24450SOL    HW174791   2.179   0.645   1.275  0.2056  0.2443 -0.0231
24450SOL    HW274792   2.075   0.565   1.200  0.2037  0.3168 -0.0978
24451SOL     OW74793   6.117   3.544   4.020  0.5592 -0.5493 -0.5107
24451SOL    HW174794   6.070   3.555   3.937  1.3622  0.4404 -0.8590
24451SOL    HW274795   6.146   3.632   4.042 -0.2139 -0.6884  1.1886
24452SOL     OW74796   3.198   2.755   9.146 -0.2134 -0.5039  0.4527
24452SOL    HW174797   3.159   2.673   9.177  0.6227 -1.0278  0.1477
24452SOL    HW274798   3.161   2.769   9.059  1.4327 -1.8529 -0.5295
24453SOL     OW74799   6.974   0.634   6.772  0.3475 -0.1428  0.5435
24453SOL    HW174800   7.008   0.691   6.841 -0.0529  0.5066  0.2142
24453SOL    HW274801   6.884   0.664   6.758  0.5570  0.0058 -0.5452
24454SOL     OW74802   2.406   2.566   5.955  0.1310  0.1408  0.8038
24454SOL    HW174803   2.315   2.595   5.952  0.3180  0.6634 -0.0660
24454SOL    HW274804   2.408   2.501   6.026 -1.3330 -1.3235 -0.4245
24455SOL     OW74805   5.554   1.050   2.921  0.5628  0.5289  0.4419
24455SOL    HW174806   5.530   1.131   2.967 -0.3763  1.2892 -1.3149
24455SOL    HW274807   5.475   0.997   2.923  0.3908  0.7289 -0.5835
24456SOL     OW74808   2.668   7.313   5.696 -0.4632  0.2982  0.1006
24456SOL    HW174809   2.712   7.390   5.659  0.5605 -0.7485 -0.9582
24456SOL    HW274810   2.739   7.253   5.717 -1.2301 -0.2724  1.1465
24457SOL     OW74811   2.051   4.836   8.601 -0.0125  0.9524  0.1368
24457SOL    HW174812   2.068   4.750   8.640  0.8652  0.5613 -1.0576
24457SOL    HW274813   2.075   4.898   8.670 -0.1089  0.2605  0.8129
24458SOL     OW74814   2.276   7.773  11.409 -0.4790 -0.7207 -0.3033
24458SOL    HW174815   2.354   7.810  11.367 -0.2881 -0.9264 -0.1308
24458SOL    HW274816   2.241   7.711  11.345  0.2807 -1.6456  0.1688
24459SOL     OW74817   7.030   1.380  11.931  0.5163 -0.3043  0.0900
24459SOL    HW174818   7.095   1.402  11.864  0.4145 -0.7322 -0.1512
24459SOL    HW274819   6.980   1.307  11.893 -0.7910  0.6934 -0.1722
24460SOL     OW74820   2.107   2.957  11.578  0.0271 -0.1082 -0.0489
24460SOL    HW174821   2.155   2.932  11.499  0.6705  1.1403 -0.0933
24460SOL    HW274822   2.162   2.926  11.650 -1.2270 -2.4775 -0.0260
24461SOL     OW74823   1.422   3.451   1.243  0.1401  0.7108 -0.0374
24461SOL    HW174824   1.428   3.431   1.149 -0.4937  0.5533 -0.0461
24461SOL    HW274825   1.471   3.380   1.285  0.4657  0.8067 -0.2500
24462SOL     OW74826   0.923   5.446   2.164  1.0202  0.4648  0.5520
24462SOL    HW174827   0.880   5.433   2.249  1.8652 -0.8122  0.8210
24462SOL    HW274828   0.871   5.394   2.103  2.0216 -0.9457  0.8470
24463SOL     OW74829   4.882   1.114  10.536 -0.1093 -0.1861 -0.1595
24463SOL    HW174830   4.964   1.101  10.489 -1.2118 -0.5363 -2.0731
24463SOL    HW274831   4.907   1.108  10.628  1.8639 -1.1345 -0.6907
24464SOL     OW74832   2.856   3.167   7.893  0.2425  0.8201 -0.2839
24464SOL    HW174833   2.921   3.097   7.899  0.0546  0.5197 -1.5160
24464SOL    HW274834   2.904   3.242   7.857 -0.0572  0.6141 -1.1436
24465SOL     OW74835   1.289   4.415   0.127  0.5261  0.6433 -0.4630
24465SOL    HW174836   1.359   4.378   0.074 -0.8461 -0.6748 -1.4602
24465SOL    HW274837   1.304   4.381   0.215 -0.0694 -1.4690 -1.1290
24466SOL     OW74838   1.282   3.303   2.664 -0.3905  0.0869 -0.2302
24466SOL    HW174839   1.326   3.378   2.702 -1.4485 -0.4346  2.2068
24466SOL    HW274840   1.342   3.230   2.679 -1.1288 -0.2572  1.2564
24467SOL     OW74841   7.257   1.546  10.564 -0.4351  0.3686 -0.9992
24467SOL    HW174842   7.171   1.575  10.594  0.5733  3.0094 -0.4095
24467SOL    HW274843   7.307   1.531  10.645  0.4582  1.5344 -1.3167
24468SOL     OW74844   5.258   2.108  10.459 -0.0424  0.1986 -0.1376
24468SOL    HW174845   5.256   2.172  10.388 -0.5372 -1.1994 -1.4377
24468SOL    HW274846   5.200   2.146  10.526  0.3198  1.4794 -0.5159
24469SOL     OW74847   4.224   7.416   1.833 -0.1730  0.4308 -0.0847
24469SOL    HW174848   4.287   7.389   1.767  1.2522  0.5433  1.1697
24469SOL    HW274849   4.224   7.511   1.829  1.7292  0.5668  1.6117
24470SOL     OW74850   2.336   6.941   0.640 -0.5485  0.5744  0.3053
24470SOL    HW174851   2.282   7.019   0.626 -1.4846 -0.2612 -0.9610
24470SOL    HW274852   2.386   6.931   0.559 -2.7625 -1.8475 -0.9325
24471SOL     OW74853   6.681   2.878   7.671  0.1024 -0.4135 -0.4467
24471SOL    HW174854   6.717   2.790   7.671  0.3160 -0.3268 -0.8895
24471SOL    HW274855   6.587   2.866   7.658  0.0429 -0.6051  0.1239
24472SOL     OW74856   5.658   1.923  12.129  0.1446 -0.3158 -0.1487
24472SOL    HW174857   5.681   1.842  12.082 -0.6477 -0.7120  0.1166
24472SOL    HW274858   5.579   1.900  12.178 -0.9672  1.0277 -1.2170
24473SOL     OW74859   5.257   0.499   5.562  0.2698  0.2242  0.3921
24473SOL    HW174860   5.245   0.590   5.532 -0.5348  0.3173  0.9655
24473SOL    HW274861   5.307   0.507   5.642  0.2550  0.1595  0.4070
24474SOL     OW74862   7.325   3.554   1.951 -0.1812  0.7858 -0.1630
24474SOL    HW174863   7.319   3.467   1.912 -0.8628  0.9469 -0.4353
24474SOL    HW274864   7.347   3.538   2.043  0.0451  0.3436 -0.2944
24475SOL     OW74865   7.075   0.565   7.851  0.2964  0.5785 -0.0205
24475SOL    HW174866   7.098   0.475   7.828  0.2480  1.2050 -2.7755
24475SOL    HW274867   6.980   0.567   7.845  0.2921  0.7979  0.1415
24476SOL     OW74868   3.513   4.468   7.055 -0.4206  0.4494 -0.0931
24476SOL    HW174869   3.457   4.493   7.129 -0.1546  0.5383  0.0800
24476SOL    HW274870   3.455   4.470   6.979 -0.8848 -0.3920  0.2258
24477SOL     OW74871   4.734   6.103   9.263  0.3663 -0.5095 -0.4172
24477SOL    HW174872   4.737   6.192   9.297  0.1425 -0.5032 -0.4138
24477SOL    HW274873   4.649   6.069   9.292 -0.5717  0.0585 -2.3704
24478SOL     OW74874   6.067   1.142  11.299  0.5837  0.8784 -0.0977
24478SOL    HW174875   6.079   1.210  11.365 -0.2319  0.0362  0.9661
24478SOL    HW274876   6.056   1.061  11.350 -1.7373  0.4460 -1.1589
24479SOL     OW74877   5.430   2.677   3.776  0.0350 -0.3814  0.1494
24479SOL    HW174878   5.425   2.625   3.696 -1.1728 -0.0790  0.0207
24479SOL    HW274879   5.410   2.767   3.748 -0.6942 -0.3245  0.8283
24480SOL     OW74880   4.441   7.139  12.153  0.0452 -0.0188 -0.0607
24480SOL    HW174881   4.496   7.196  12.207 -0.1017 -0.4095  0.5050
24480SOL    HW274882   4.360   7.129  12.203  0.3613 -1.3557  0.2302
24481SOL     OW74883   0.619   3.748   3.974  0.3986 -0.3584 -0.0546
24481SOL    HW174884   0.686   3.803   4.015 -1.1563  1.9339 -0.4030
24481SOL    HW274885   0.623   3.666   4.023  2.3208  0.2923  1.0114
24482SOL     OW74886   7.160   3.611   4.851  0.6535 -0.8037  0.3886
24482SOL    HW174887   7.138   3.555   4.926 -1.9162  1.8108  1.7965
24482SOL    HW274888   7.099   3.583   4.782 -0.3372 -0.1203  0.9520
24483SOL     OW74889   2.083   7.727   7.380  0.1210  0.4009 -0.0798
24483SOL    HW174890   2.067   7.815   7.345  1.4006  0.3569 -0.8405
24483SOL    HW274891   2.144   7.687   7.318  2.1806  0.1674  1.9415
24484SOL     OW74892   0.290   1.346  11.051  0.2989 -0.1605 -0.1105
24484SOL    HW174893   0.195   1.340  11.063  0.3850  0.1123  0.7325
24484SOL    HW274894   0.300   1.410  10.980 -0.2025 -1.7443 -1.7124
24485SOL     OW74895   1.646   4.647   3.706  0.7863 -0.1336  0.0150
24485SOL    HW174896   1.566   4.650   3.654  2.1148 -0.2757 -2.1546
24485SOL    HW274897   1.619   4.608   3.789 -1.0370 -2.0438 -1.3652
24486SOL     OW74898   6.531   3.760   1.161  0.3479  0.4941  0.0569
24486SOL    HW174899   6.620   3.741   1.132 -0.0891  1.7350 -2.3642
24486SOL    HW274900   6.543   3.806   1.244  1.8111 -1.2956  0.9129
24487SOL     OW74901   0.709   3.604  12.206  0.4348  0.1639 -0.0888
24487SOL    HW174902   0.746   3.523  12.241  0.3246  0.2317  0.1888
24487SOL    HW274903   0.736   3.672  12.268  1.6232  0.5610 -1.0075
24488SOL     OW74904   6.994   4.639  10.101 -0.2337  0.1052  0.1367
24488SOL    HW174905   6.926   4.592  10.150  0.7528 -0.2555  1.2002
24488SOL    HW274906   7.060   4.661  10.167  1.0726 -0.2551 -1.0141
24489SOL     OW74907   1.534   4.679  12.208 -0.6147  0.6273 -0.8328
24489SOL    HW174908   1.460   4.656  12.264 -0.6509 -3.1379 -2.1287
24489SOL    HW274909   1.610   4.671  12.264 -0.8993  0.4548 -0.4701
24490SOL     OW74910   0.453   3.484  12.273 -0.1750 -1.0578  0.7704
24490SOL    HW174911   0.524   3.545  12.250 -1.3691  0.1670  0.1876
24490SOL    HW274912   0.419   3.518  12.355  0.0817 -1.8084  1.1911
24491SOL     OW74913   6.061   2.636   5.693 -0.2399 -0.3326 -0.0821
24491SOL    HW174914   6.034   2.630   5.602 -0.0846 -0.3386 -0.1273
24491SOL    HW274915   6.002   2.702   5.731  1.8263  2.2307 -0.9797
24492SOL     OW74916   2.857   1.319   2.383 -0.2002  0.3077 -0.0444
24492SOL    HW174917   2.922   1.275   2.328  0.1823  2.1405 -1.1534
24492SOL    HW274918   2.775   1.311   2.335  0.0172  1.4038 -0.6230
24493SOL     OW74919   3.270   1.261  10.257 -0.1802 -0.0752  0.6850
24493SOL    HW174920   3.213   1.327  10.219  0.4768  0.3954  0.4943
24493SOL    HW274921   3.234   1.244  10.343  0.3389  1.4463  1.2292
24494SOL     OW74922   5.387   7.707   6.075 -0.5733  0.3912 -0.0653
24494SOL    HW174923   5.345   7.731   6.157  0.7568 -2.4869  1.6311
24494SOL    HW274924   5.460   7.768   6.066 -3.5646  4.0696 -1.9662
24495SOL     OW74925   7.332   1.521   0.035  0.2465 -0.3504  0.1127
24495SOL    HW174926   7.300   1.438   0.000  0.0860 -0.1198 -0.3100
24495SOL    HW274927   7.257   1.581   0.024  1.2270  0.5785 -2.2235
24496SOL     OW74928   4.705   4.266  11.442  0.4943 -0.0363  0.0279
24496SOL    HW174929   4.743   4.212  11.511 -0.0087  0.6286  0.8497
24496SOL    HW274930   4.704   4.210  11.365 -0.1809 -1.2732  0.8988
24497SOL     OW74931   1.582   6.025   1.849 -0.2425  0.9999  0.3836
24497SOL    HW174932   1.491   6.011   1.824  0.1247 -0.0711 -0.4080
24497SOL    HW274933   1.632   6.019   1.768  0.6265  0.6494  0.9166
24498SOL     OW74934   3.985   1.446   5.556  0.4193 -0.2793 -0.1072
24498SOL    HW174935   4.020   1.516   5.500 -1.7117 -0.0522 -1.2779
24498SOL    HW274936   3.913   1.488   5.604  0.1415 -1.2950  0.3880
24499SOL     OW74937   4.819   3.537  11.373 -0.4000  0.1090 -0.1781
24499SOL    HW174938   4.739   3.570  11.414 -1.2257 -1.6929 -0.2312
24499SOL    HW274939   4.791   3.506  11.287 -0.0780 -2.3239  0.5395
24500SOL     OW74940   2.196   4.180   7.383 -0.7357 -0.2009 -0.5542
24500SOL    HW174941   2.268   4.123   7.355 -0.6023  0.4072 -1.4762
24500SOL    HW274942   2.159   4.215   7.302 -0.4358  1.4837 -0.0104
24501SOL     OW74943   3.919   2.659  11.539  0.4047  0.0174  0.9090
24501SOL    HW174944   3.825   2.654  11.524  0.5082 -1.5803  0.6781
24501SOL    HW274945   3.936   2.594  11.607  1.2657  0.7090  1.3718
24502SOL     OW74946   2.032   2.815   4.654 -0.3363  0.1456  0.4255
24502SOL    HW174947   2.010   2.897   4.697 -1.5030  0.9211 -1.5132
24502SOL    HW274948   1.954   2.760   4.665  0.2949 -0.5934  1.3836
24503SOL     OW74949   5.451   0.470   8.846  0.1145  0.0295  0.0479
24503SOL    HW174950   5.484   0.481   8.757  0.5134  1.8818  0.3896
24503SOL    HW274951   5.374   0.527   8.851 -0.4992 -0.8149  0.6081
24504SOL     OW74952   4.234   0.464   3.108 -0.2085 -0.2218  0.8368
24504SOL    HW174953   4.293   0.471   3.033 -0.8429 -1.0565  0.2388
24504SOL    HW274954   4.156   0.421   3.074 -1.6282  1.8225  1.3761
24505SOL     OW74955   5.260   6.091   9.200 -0.2704  0.3336 -0.0015
24505SOL    HW174956   5.241   6.024   9.265 -1.2969  0.6598  0.0577
24505SOL    HW274957   5.334   6.057   9.150  0.5118  0.0607  1.2973
24506SOL     OW74958   1.355   1.421   1.793 -0.1723 -0.1351 -0.1429
24506SOL    HW174959   1.323   1.467   1.715 -1.3489 -1.5673 -0.5762
24506SOL    HW274960   1.360   1.488   1.861 -1.1331  0.7567 -0.9129
24507SOL     OW74961   2.984   5.928   1.654  0.0865  0.4212  0.3932
24507SOL    HW174962   3.069   5.934   1.611  0.0203  0.0569  0.2075
24507SOL    HW274963   2.925   5.978   1.598 -0.1252 -0.5480 -0.2758
24508SOL     OW74964   0.681   3.288   6.037 -0.0728 -0.1467  0.0196
24508SOL    HW174965   0.597   3.242   6.042 -0.1394 -0.0202  0.0851
24508SOL    HW274966   0.712   3.290   6.128  0.0284 -0.2439 -0.0133
24509SOL     OW74967   2.660   0.279   1.904  0.0016 -0.2119  0.1659
24509SOL    HW174968   2.576   0.236   1.919 -0.5903  0.7597 -0.2208
24509SOL    HW274969   2.649   0.367   1.942  0.9940 -0.2145  0.4971
24510SOL     OW74970   5.192   4.052   9.654  0.0222 -0.2737  0.4354
24510SOL    HW174971   5.154   4.108   9.585  0.2206  0.0315  0.5713
24510SOL    HW274972   5.145   3.969   9.646  0.8855 -0.6634 -0.8833
24511SOL     OW74973   0.620   5.644   2.888  0.0266 -0.4832  0.2535
24511SOL    HW174974   0.654   5.699   2.817 -0.4235 -0.5896 -0.0443
24511SOL    HW274975   0.648   5.556   2.865 -1.1324 -0.6926 -0.4205
24512SOL     OW74976   5.987   3.542   3.531 -0.4662 -0.4748  0.6953
24512SOL    HW174977   6.021   3.631   3.547 -1.8079  0.0063  0.9949
24512SOL    HW274978   5.928   3.552   3.457  1.0636 -1.5714 -0.7165
24513SOL     OW74979   4.195   7.350   9.178 -0.0165  0.2758 -0.4327
24513SOL    HW174980   4.192   7.375   9.085  0.1058 -0.5547 -0.6741
24513SOL    HW274981   4.111   7.305   9.193  0.1163  0.0873 -0.2458
24514SOL     OW74982   4.801   7.606   4.500 -0.4157 -0.2024  0.5253
24514SOL    HW174983   4.764   7.687   4.534  0.3650  1.2277 -1.7659
24514SOL    HW274984   4.725   7.553   4.477 -1.0596  1.1143 -0.5957
24515SOL     OW74985   0.960   3.817  11.658  0.0256  0.0516  0.3147
24515SOL    HW174986   1.042   3.788  11.618 -0.2078 -0.6698  0.3568
24515SOL    HW274987   0.896   3.815  11.587 -0.6022 -2.0921  0.8750
24516SOL     OW74988   1.372   5.774   1.814  0.0791  0.1338 -0.0385
24516SOL    HW174989   1.422   5.794   1.735 -0.7014  0.8476 -0.3748
24516SOL    HW274990   1.283   5.806   1.794  0.1959  1.6561  1.6331
24517SOL     OW74991   5.067   2.153   4.993 -0.4622 -0.5294  0.1499
24517SOL    HW174992   5.058   2.249   4.994 -0.5532 -0.5335  1.5041
24517SOL    HW274993   5.085   2.130   5.084  2.5603 -1.5255 -0.5701
24518SOL     OW74994   2.402   5.368   4.607  0.3962  0.1390  0.5233
24518SOL    HW174995   2.318   5.364   4.652  1.0463  1.1013  1.8716
24518SOL    HW274996   2.390   5.434   4.539  0.1969  0.5984  1.0048
24519SOL     OW74997   4.929   2.626   3.807 -0.4677 -0.0259 -0.2363
24519SOL    HW174998   5.014   2.590   3.783 -0.3867 -0.2124  0.3142
24519SOL    HW274999   4.870   2.550   3.809  0.0154 -0.4325  2.3832
24520SOL     OW75000   1.929   4.739   0.561  0.3131  0.0590 -0.1536
24520SOL    HW175001   1.887   4.774   0.482 -0.9802 -0.4804  0.2735
24520SOL    HW275002   1.899   4.648   0.566 -0.2068  0.2804  1.3261
24521SOL     OW75003   0.790   0.173  11.139  0.1720 -0.1203  0.1051
24521SOL    HW175004   0.729   0.101  11.152  1.2754 -0.6757  2.8372
24521SOL    HW275005   0.735   0.252  11.149 -0.6818 -0.5483 -0.9777
24522SOL     OW75006   4.549   6.973   5.763 -0.4296  0.2722 -0.2883
24522SOL    HW175007   4.643   6.959   5.756 -0.5031 -1.2514  1.1073
24522SOL    HW275008   4.511   6.887   5.744 -1.4291  0.4675  0.7316
24523SOL     OW75009   7.154   0.964   2.007  0.3515  0.0870  0.0003
24523SOL    HW175010   7.186   1.000   2.090  0.0872 -0.4398  0.3341
24523SOL    HW275011   7.208   1.007   1.941  1.8337 -0.8537  0.5607
24524SOL     OW75012   2.830   4.906   4.614 -0.1733  0.4422  0.1258
24524SOL    HW175013   2.875   4.976   4.567  0.7051 -0.0558  0.2105
24524SOL    HW275014   2.860   4.915   4.705  0.8249 -0.7143 -0.0635
24525SOL     OW75015   6.104   0.346   8.719  0.1310  0.1047  0.0612
24525SOL    HW175016   6.148   0.425   8.689 -0.4204  1.1982  1.9178
24525SOL    HW275017   6.175   0.288   8.747  0.5416 -0.0832 -1.3392
24526SOL     OW75018   1.470   2.524   4.066  0.1902 -0.1253  0.2339
24526SOL    HW175019   1.518   2.458   4.016  0.2299  0.0873 -0.0075
24526SOL    HW275020   1.495   2.608   4.026 -1.7295 -0.1096 -1.0563
24527SOL     OW75021   2.169   3.445   0.578 -0.1540  0.1658  0.2060
24527SOL    HW175022   2.211   3.464   0.661 -0.4527  2.0095 -0.0112
24527SOL    HW275023   2.099   3.511   0.571  0.0231  0.2258 -1.5957
24528SOL     OW75024   3.627   1.223   4.682 -0.3439  0.3281 -0.4041
24528SOL    HW175025   3.590   1.251   4.598  0.4406  1.5212 -0.3818
24528SOL    HW275026   3.687   1.152   4.659 -2.2908 -1.3904 -0.4781
24529SOL     OW75027   6.714   6.540   0.236  0.4184  1.0746  0.1465
24529SOL    HW175028   6.668   6.624   0.238  0.8790  1.4120 -1.4843
24529SOL    HW275029   6.718   6.518   0.143  1.9897  0.1813  0.3951
24530SOL     OW75030   0.794   6.906   5.609  0.2210 -0.1603  0.0088
24530SOL    HW175031   0.749   6.876   5.530 -1.1121 -1.0129  1.0406
24530SOL    HW275032   0.872   6.852   5.615  2.3387  2.2962 -2.5908
24531SOL     OW75033   0.448   6.040   0.400  0.8965  0.1911 -0.1333
24531SOL    HW175034   0.440   6.101   0.473  0.2164  0.6578 -0.5911
24531SOL    HW275035   0.540   6.013   0.402  0.7929 -0.1199  1.1371
24532SOL     OW75036   4.329   6.948   0.299  0.3422 -0.3113 -0.0450
24532SOL    HW175037   4.268   7.022   0.303  1.1998  0.4026  0.1399
24532SOL    HW275038   4.388   6.961   0.373  1.7145 -0.0763 -1.1358
24533SOL     OW75039   5.984   1.377   7.421  0.2507  0.1656 -0.1441
24533SOL    HW175040   6.048   1.341   7.482  0.6317  0.7966 -0.1638
24533SOL    HW275041   5.899   1.359   7.462  0.3537 -1.6935 -0.6563
24534SOL     OW75042   4.736   3.078  11.251  0.3202 -0.8631  0.3905
24534SOL    HW175043   4.802   3.044  11.189  1.7821 -1.0512  1.9848
24534SOL    HW275044   4.685   3.141  11.199  0.2154 -2.4082 -1.5258
24535SOL     OW75045   6.982   3.337   5.699 -0.6534 -0.0859  0.6195
24535SOL    HW175046   6.946   3.251   5.675 -0.6814  0.0861  0.0450
24535SOL    HW275047   7.074   3.320   5.720 -0.6454 -0.2432  0.4512
24536SOL     OW75048   7.544   5.634  11.629  0.0432  0.2271 -0.4854
24536SOL    HW175049   7.595   5.627  11.549  1.1461  0.0669  0.2099
24536SOL    HW275050   7.553   5.725  11.656 -0.6291  0.3719 -0.7271
24537SOL     OW75051   7.498   4.029   2.008 -0.1631 -0.0023  0.0278
24537SOL    HW175052   7.529   4.096   1.946  0.3019  0.2866  0.5739
24537SOL    HW275053   7.509   3.947   1.961  1.7248  0.0542  0.3154
24538SOL     OW75054   4.349   0.233   9.869 -0.8151  0.3477 -0.3364
24538SOL    HW175055   4.379   0.313   9.911 -2.2276  0.7641 -0.0402
24538SOL    HW275056   4.395   0.163   9.914 -0.0366  0.9538 -0.1666
24539SOL     OW75057   0.342   3.719   5.024  0.1204 -0.0629  0.5789
24539SOL    HW175058   0.423   3.767   5.037 -0.1305  0.8378 -0.8886
24539SOL    HW275059   0.314   3.742   4.935 -0.9391 -1.5608  0.4674
24540SOL     OW75060   2.562   4.769  10.629  0.3347 -0.2519  0.4849
24540SOL    HW175061   2.481   4.720  10.645 -0.0089  0.0740 -0.1829
24540SOL    HW275062   2.537   4.860  10.643  0.9073 -0.2436  1.4846
24541SOL     OW75063   3.027   6.782  10.732  0.0967  0.2160  0.2730
24541SOL    HW175064   3.055   6.868  10.762 -0.4038 -0.0299  1.5137
24541SOL    HW275065   3.091   6.721  10.770 -0.4524 -0.0919  0.7107
24542SOL     OW75066   6.575   3.734   2.758 -0.5679 -0.5753  0.5014
24542SOL    HW175067   6.545   3.669   2.823  2.6437 -0.5904  2.1693
24542SOL    HW275068   6.559   3.818   2.800 -2.5517 -0.3128 -0.6685
24543SOL     OW75069   5.209   1.322   5.398  0.1838  0.2766 -0.1364
24543SOL    HW175070   5.285   1.293   5.348 -0.4459  0.0957 -1.0279
24543SOL    HW275071   5.169   1.390   5.343 -0.2276  0.4540  0.3724
24544SOL     OW75072   7.799   4.348   3.707  0.0297  0.1985 -0.5516
24544SOL    HW175073   7.756   4.298   3.776  0.3437 -0.9338 -1.1459
24544SOL    HW275074   7.753   4.432   3.705 -0.1839  0.1255  0.8061
24545SOL     OW75075   2.740   6.266   3.931  0.0722 -0.8529 -0.1041
24545SOL    HW175076   2.770   6.214   3.857  0.2741 -0.1144 -0.5577
24545SOL    HW275077   2.750   6.209   4.007 -0.2324 -1.6597 -0.6559
24546SOL     OW75078   4.555   1.629   0.098 -0.6180  0.9037 -0.0431
24546SOL    HW175079   4.469   1.607   0.061 -0.1770  1.1537 -1.2681
24546SOL    HW275080   4.614   1.562   0.062  0.0822  1.9739 -0.9468
24547SOL     OW75081   0.221   5.204   1.660 -0.5925  0.0975  0.3971
24547SOL    HW175082   0.156   5.151   1.706  0.5750 -1.5699  0.2233
24547SOL    HW275083   0.260   5.257   1.729 -1.7547  0.7446  0.5874
24548SOL     OW75084   7.327   6.297   1.108 -1.1272 -0.2376 -0.3549
24548SOL    HW175085   7.389   6.362   1.076  0.0226 -1.2322 -0.2269
24548SOL    HW275086   7.249   6.347   1.130  0.1046  1.2739  0.8198
24549SOL     OW75087   5.271   2.720   0.454  0.1951  0.0698  0.6329
24549SOL    HW175088   5.246   2.635   0.419 -0.7095  0.4655  0.2800
24549SOL    HW275089   5.347   2.746   0.403  0.3740 -0.4468  0.6302
24550SOL     OW75090   6.585   6.186   8.627 -0.3579 -0.1512 -0.5511
24550SOL    HW175091   6.670   6.168   8.667 -0.2915 -0.7664 -0.9521
24550SOL    HW275092   6.535   6.105   8.639 -0.7452  0.0653 -0.6797
24551SOL     OW75093   2.225   3.915  12.000 -0.3071 -0.3057  0.4225
24551SOL    HW175094   2.211   3.960  11.916  1.1376 -0.6801 -0.0444
24551SOL    HW275095   2.217   3.984  12.066  0.5743  0.3976 -0.1865
24552SOL     OW75096   3.205   5.509   3.311 -0.2200  0.2158 -0.0470
24552SOL    HW175097   3.290   5.527   3.349  0.0386 -0.8366 -0.0978
24552SOL    HW275098   3.165   5.595   3.300 -0.1746  0.5989  2.2532
24553SOL     OW75099   2.858   1.883   7.095  0.2001  0.2982 -0.3195
24553SOL    HW175100   2.828   1.974   7.098 -2.9608 -0.6590  1.1783
24553SOL    HW275101   2.911   1.873   7.174 -0.3633  0.6051  0.1092
24554SOL     OW75102   2.173   1.234  10.881  0.5144 -0.0447 -0.1701
24554SOL    HW175103   2.202   1.316  10.921 -0.8793 -0.1785  1.2116
24554SOL    HW275104   2.078   1.244  10.871  0.1058 -1.9050  1.1846
24555SOL     OW75105   2.222   7.155   7.472  0.0382  0.2338 -0.6301
24555SOL    HW175106   2.175   7.156   7.555 -0.5684  0.5957 -0.9727
24555SOL    HW275107   2.307   7.116   7.493  0.2605  1.2003  0.3625
24556SOL     OW75108   7.366   7.164  10.895 -0.2845  0.3597  0.0719
24556SOL    HW175109   7.407   7.249  10.877  0.2320 -0.2030 -1.5468
24556SOL    HW275110   7.374   7.154  10.990  0.6036  1.6296  0.1676
24557SOL     OW75111   1.778   7.659  12.205  0.0172  0.5738  0.0683
24557SOL    HW175112   1.815   7.674  12.118  1.5784  1.2030  0.8145
24557SOL    HW275113   1.700   7.714  12.208 -0.3422  0.1525 -1.1068
24558SOL     OW75114   1.681   1.887  11.471 -0.3798 -0.0289  0.0532
24558SOL    HW175115   1.611   1.823  11.456 -2.0231  1.5319  0.7457
24558SOL    HW275116   1.748   1.838  11.518 -1.3874 -1.3714  0.1487
24559SOL     OW75117   0.603   2.803   2.605  0.2907 -0.1863  0.0422
24559SOL    HW175118   0.613   2.891   2.642  2.3249 -1.0482  1.8265
24559SOL    HW275119   0.544   2.759   2.666 -1.5603  0.1622 -1.4130
24560SOL     OW75120   2.029   5.746   8.702 -0.1146  0.3109 -0.5283
24560SOL    HW175121   1.952   5.796   8.677 -0.4576  0.6583  1.1421
24560SOL    HW275122   2.097   5.811   8.718 -0.4792  0.2671  1.3677
24561SOL     OW75123   6.275   2.476   3.776  0.7375  0.5304  0.1291
24561SOL    HW175124   6.339   2.538   3.812  0.4165  0.0094  1.6672
24561SOL    HW275125   6.262   2.412   3.846 -0.1703 -0.3551 -0.8183
24562SOL     OW75126   0.329   7.831   8.061  0.2407  0.2957  0.7794
24562SOL    HW175127   0.271   7.889   8.011 -1.3869 -1.5014  0.4689
24562SOL    HW275128   0.335   7.872   8.147  0.0846  1.5186  0.2305
24563SOL     OW75129   0.913   7.500   9.077  0.1532  0.1202 -0.0664
24563SOL    HW175130   0.943   7.457   9.157 -0.4615  0.5671  0.4133
24563SOL    HW275131   0.974   7.572   9.064  0.4727 -0.1731 -0.2067
24564SOL     OW75132   3.287   3.368   7.503  0.4148  0.4629 -0.0206
24564SOL    HW175133   3.198   3.351   7.472  0.6759 -0.6556 -0.1951
24564SOL    HW275134   3.278   3.376   7.598  0.1119  0.4493 -0.0466
24565SOL     OW75135   3.586   1.502   0.993  0.5765 -0.9447  0.0412
24565SOL    HW175136   3.644   1.484   0.919  0.4459  0.7633 -0.5232
24565SOL    HW275137   3.499   1.513   0.953  0.6946  1.1401  0.2525
24566SOL     OW75138   0.043   4.878   2.541  0.6112 -0.1855 -0.2946
24566SOL    HW175139   0.058   4.792   2.580  2.4969  0.1833 -0.0795
24566SOL    HW275140  -0.049   4.897   2.557  0.9387 -0.6856  2.7157
24567SOL     OW75141   0.588   3.049  11.154 -0.0168 -0.0879 -0.5886
24567SOL    HW175142   0.566   2.991  11.227  0.3885  0.6681  0.1487
24567SOL    HW275143   0.548   3.133  11.178 -0.0211  0.1186 -1.3194
24568SOL     OW75144   2.595   4.067   3.747 -0.3076 -0.2946 -0.6373
24568SOL    HW175145   2.656   3.999   3.722 -0.7237  0.0696 -2.7912
24568SOL    HW275146   2.554   4.095   3.665 -1.9108  0.8566  0.4858
24569SOL     OW75147   1.110   0.688  10.385  0.1179  0.0870  0.0615
24569SOL    HW175148   1.168   0.612  10.379  0.5845  0.1843  2.2140
24569SOL    HW275149   1.168   0.763  10.385 -0.1764  0.3189  0.0890
24570SOL     OW75150   4.156   5.632   4.550  0.5753 -0.3219 -0.1309
24570SOL    HW175151   4.223   5.572   4.584  0.6988 -0.0576  0.0956
24570SOL    HW275152   4.174   5.716   4.594  0.4383 -0.1045 -0.4870
24571SOL     OW75153   1.315   0.451   6.342 -0.4287 -0.1098 -0.0332
24571SOL    HW175154   1.372   0.514   6.386  0.1724 -0.4795 -0.2611
24571SOL    HW275155   1.262   0.413   6.412 -0.8767  0.7235  0.0895
24572SOL     OW75156   4.599   4.202   0.771  0.5004 -0.0033 -0.0079
24572SOL    HW175157   4.531   4.260   0.804 -0.8437 -1.5257  0.0358
24572SOL    HW275158   4.604   4.223   0.677  0.6955  0.8162  0.1826
24573SOL     OW75159   2.886   6.326   9.656  0.4575 -0.2452  0.5306
24573SOL    HW175160   2.915   6.361   9.740 -0.6442 -1.1825  1.3389
24573SOL    HW275161   2.951   6.259   9.634  0.8693  0.1557  0.5188
24574SOL     OW75162   0.418   1.987  10.742  0.0997 -0.2778  0.1714
24574SOL    HW175163   0.400   2.079  10.724 -0.1586 -0.2418  0.5828
24574SOL    HW275164   0.482   1.988  10.813  0.2762 -0.4155  0.0159
24575SOL     OW75165   7.638   4.364   7.413 -0.5781  0.3224  0.0218
24575SOL    HW175166   7.695   4.433   7.447  0.9407 -0.7560 -0.2749
24575SOL    HW275167   7.564   4.363   7.473 -0.9140  2.5433 -0.2489
24576SOL     OW75168   1.442   1.885   9.882 -0.0520  0.0029 -0.1732
24576SOL    HW175169   1.411   1.950   9.819 -1.9909  0.6660  1.3861
24576SOL    HW275170   1.425   1.923   9.968  0.9468 -1.5886  0.8028
24577SOL     OW75171   0.988   3.281   5.783 -0.0914 -0.0345  0.0217
24577SOL    HW175172   0.900   3.318   5.785 -0.0580  0.1614 -1.3052
24577SOL    HW275173   0.979   3.195   5.823 -1.4563 -1.1191 -2.4295
24578SOL     OW75174   3.300   6.334   9.441 -0.7803  0.8948 -0.4185
24578SOL    HW175175   3.393   6.316   9.425 -1.2043 -3.2154  0.4939
24578SOL    HW275176   3.257   6.310   9.359 -1.1321  2.0215 -0.5738
24579SOL     OW75177   2.005   3.491   9.163 -0.4796 -0.1144  0.3535
24579SOL    HW175178   2.094   3.515   9.137 -0.4138 -0.5634  0.1524
24579SOL    HW275179   1.960   3.574   9.175  0.2485  0.1421  1.4344
24580SOL     OW75180   6.280   6.692  10.590  0.0561  0.3279  0.5441
24580SOL    HW175181   6.371   6.672  10.565  0.6354  2.0822  1.1033
24580SOL    HW275182   6.282   6.693  10.686 -0.4515  0.8109  0.5544
24581SOL     OW75183   0.989   7.231   2.255  0.0389  0.1794 -0.1922
24581SOL    HW175184   1.073   7.246   2.298  0.4834  0.0666 -0.9985
24581SOL    HW275185   0.941   7.314   2.266 -0.0576 -0.0121  0.9279
24582SOL     OW75186   6.054   2.611   1.688  0.2635  0.2673 -0.1839
24582SOL    HW175187   5.983   2.546   1.693  0.0211  0.5274 -0.2502
24582SOL    HW275188   6.052   2.654   1.774  0.9498 -0.3634  0.1556
24583SOL     OW75189   4.879   5.298   1.932 -0.0229  0.2937  0.0769
24583SOL    HW175190   4.856   5.389   1.955  1.1464  0.8684 -0.9149
24583SOL    HW275191   4.805   5.268   1.879 -0.6648  0.4695  0.8378
24584SOL     OW75192   7.777   1.952   8.562 -0.6636 -0.4878  0.2307
24584SOL    HW175193   7.855   1.996   8.531 -0.1941 -2.3404 -1.4215
24584SOL    HW275194   7.810   1.874   8.606 -1.5365 -0.3418  1.1771
24585SOL     OW75195   2.489   2.898   5.471  0.1702 -0.1810 -0.1092
24585SOL    HW175196   2.556   2.855   5.525 -1.6516 -1.9085  0.8950
24585SOL    HW275197   2.463   2.974   5.522 -0.4584 -0.9588  0.7633
24586SOL     OW75198   5.547   4.453   9.136  0.0975 -0.5103 -0.5364
24586SOL    HW175199   5.537   4.397   9.059 -1.8899  0.5352 -1.0805
24586SOL    HW275200   5.528   4.541   9.105 -0.5712 -0.0372  1.1051
24587SOL     OW75201   5.730   7.006   2.990  0.2152  0.2726 -0.5952
24587SOL    HW175202   5.811   6.974   3.029  0.9057  1.3704 -1.0728
24587SOL    HW275203   5.675   6.928   2.979  1.3797 -0.5521 -0.6734
24588SOL     OW75204   3.282   6.212   0.509 -0.0277 -0.5797  0.0973
24588SOL    HW175205   3.330   6.211   0.427  0.9839 -1.4921  0.6818
24588SOL    HW275206   3.327   6.277   0.562 -0.8922  0.2646 -0.1668
24589SOL     OW75207   1.015   2.835   9.655  0.1476 -0.1716 -0.1878
24589SOL    HW175208   1.024   2.930   9.646 -0.4777 -0.0242  0.6070
24589SOL    HW275209   1.102   2.801   9.633  0.0748  0.4805 -1.6313
24590SOL     OW75210   4.150   2.134   1.735 -0.3809 -0.4400  0.5275
24590SOL    HW175211   4.082   2.160   1.672  0.3296 -0.0721 -0.1099
24590SOL    HW275212   4.232   2.148   1.688  0.1079 -2.4989  0.6623
24591SOL     OW75213   2.129   3.459   1.058  0.2123  0.1300 -0.2285
24591SOL    HW175214   2.145   3.515   0.982  1.1852  0.6002  0.2977
24591SOL    HW275215   2.214   3.455   1.103 -0.7149  1.2620  1.7575
24592SOL     OW75216   4.042   5.405   8.234 -0.1607  0.3425 -0.6444
24592SOL    HW175217   4.011   5.358   8.312 -1.2794  2.5945  0.3408
24592SOL    HW275218   3.970   5.462   8.210  1.5263  2.3879 -1.1086
24593SOL     OW75219   3.076   3.964   4.172 -0.3696 -0.3206  0.4713
24593SOL    HW175220   3.020   3.929   4.103  1.4350  0.8971 -1.7534
24593SOL    HW275221   3.064   3.903   4.245 -2.7477 -1.3989 -0.7010
24594SOL     OW75222   0.818   1.900   2.552  0.4458  0.0289  0.6443
24594SOL    HW175223   0.791   1.811   2.577  0.2552  0.3249  1.5031
24594SOL    HW275224   0.826   1.896   2.456 -2.1558 -0.2235  0.3603
24595SOL     OW75225   2.811   2.151   4.769 -0.0045  0.1526  0.2601
24595SOL    HW175226   2.875   2.098   4.722 -0.9192 -0.8022  0.0520
24595SOL    HW275227   2.821   2.239   4.732  1.5602  0.1576  0.6402
24596SOL     OW75228   2.519   0.826   5.259 -0.0870 -0.3256  0.6063
24596SOL    HW175229   2.457   0.804   5.189 -0.3196 -0.5497  0.8840
24596SOL    HW275230   2.582   0.754   5.259 -0.1347 -0.3670  0.6847
24597SOL     OW75231   3.088   1.139   0.748 -0.5707  0.2862  0.1656
24597SOL    HW175232   3.023   1.110   0.685  0.8559 -0.7679 -0.8761
24597SOL    HW275233   3.059   1.102   0.832 -3.0974  2.6325  0.4664
24598SOL     OW75234   2.492   2.318  11.690 -0.4107 -0.1776 -0.2695
24598SOL    HW175235   2.496   2.343  11.598 -1.1182  2.3621  0.3049
24598SOL    HW275236   2.413   2.361  11.723 -1.2069 -2.5241  1.1506
24599SOL     OW75237   6.188   0.145   5.853  0.1496 -0.0744  0.0871
24599SOL    HW175238   6.247   0.076   5.883 -2.4122 -2.3224  0.3475
24599SOL    HW275239   6.218   0.165   5.764  1.0482 -1.4827  0.0479
24600SOL     OW75240   1.852   7.348   6.013 -0.0110  0.7522 -0.1794
24600SOL    HW175241   1.878   7.429   6.057 -0.5076  1.4986 -1.2276
24600SOL    HW275242   1.901   7.279   6.059 -0.7153  1.4427  1.7061
24601SOL     OW75243   7.657   2.670  10.840 -0.0226  0.1081  0.4224
24601SOL    HW175244   7.685   2.751  10.882 -0.4614  0.3109  0.3229
24601SOL    HW275245   7.562   2.676  10.835 -0.3386 -1.5900  2.8497
24602SOL     OW75246   1.843   3.942  12.019  0.4458 -0.0138 -0.2105
24602SOL    HW175247   1.914   3.997  12.053  0.7815 -0.7811  0.3368
24602SOL    HW275248   1.857   3.942  11.924  1.3115 -0.3328 -0.0907
24603SOL     OW75249   5.763   5.095  12.122  0.0123 -0.2338  0.0766
24603SOL    HW175250   5.769   5.137  12.208 -0.8670 -1.6209  0.8523
24603SOL    HW275251   5.825   5.144  12.067  2.4217 -0.8049  2.0997
24604SOL     OW75252   7.571   4.853   1.494 -0.2524 -0.4447  0.0981
24604SOL    HW175253   7.607   4.919   1.436 -0.6769  0.3565  0.7195
24604SOL    HW275254   7.636   4.783   1.495  0.4502  0.1942 -0.1631
24605SOL     OW75255   3.760   4.789  11.746  0.6246  0.0971 -0.1995
24605SOL    HW175256   3.766   4.798  11.842  0.1664 -0.7345 -0.0816
24605SOL    HW275257   3.765   4.879  11.714 -1.2261  0.5951  0.7369
24606SOL     OW75258   0.850   1.564   1.256  0.2457  0.5158  0.0623
24606SOL    HW175259   0.837   1.658   1.273  0.1093  0.8146 -1.6020
24606SOL    HW275260   0.823   1.522   1.338 -1.6361  1.7814  0.1536
24607SOL     OW75261   7.802   2.206   5.799  0.1434  0.2491 -0.4245
24607SOL    HW175262   7.795   2.200   5.704  0.2375  0.0418 -0.4186
24607SOL    HW275263   7.840   2.293   5.815 -1.5722  1.0591 -0.5023
24608SOL     OW75264   5.309   2.689   1.820  0.3478 -0.2301  0.4053
24608SOL    HW175265   5.380   2.740   1.860  1.3061 -0.6968 -0.6641
24608SOL    HW275266   5.332   2.598   1.838 -1.4524 -0.3739  2.4684
24609SOL     OW75267   0.772   2.847   1.425 -0.2105 -0.0506 -0.1269
24609SOL    HW175268   0.763   2.795   1.505  0.5559  1.0342  0.6871
24609SOL    HW275269   0.756   2.937   1.453  1.3790  0.5120 -0.9122
24610SOL     OW75270   5.310   5.388   9.794 -0.1111  0.1375 -0.3246
24610SOL    HW175271   5.319   5.471   9.841  1.4152 -0.8410  1.2303
24610SOL    HW275272   5.392   5.378   9.747  1.1551 -1.8987  2.0515
24611SOL     OW75273   4.678   0.306   5.151  0.3866  0.4833 -0.6514
24611SOL    HW175274   4.609   0.307   5.085 -0.0066  0.0889 -0.2596
24611SOL    HW275275   4.755   0.339   5.106  0.2192 -0.1253 -1.4122
24612SOL     OW75276   1.992   4.361  10.803  0.3661 -0.3628 -0.0356
24612SOL    HW175277   1.953   4.363  10.715  2.9136  0.3225 -1.2488
24612SOL    HW275278   1.918   4.374  10.862 -1.7915 -2.9423 -1.8965
24613SOL     OW75279   6.823   0.276   6.192 -0.3137 -0.1479  0.1790
24613SOL    HW175280   6.732   0.292   6.164  0.4471 -0.7905 -3.1127
24613SOL    HW275281   6.830   0.180   6.194  0.1841 -0.1052  0.9640
24614SOL     OW75282   1.076   2.106  12.229  0.3695 -0.5628 -0.6705
24614SOL    HW175283   1.051   2.183  12.177  0.6924 -3.4548 -5.7614
24614SOL    HW275284   1.169   2.117  12.246  0.7375 -0.4056 -2.6230
24615SOL     OW75285   7.066   1.587   7.406  0.1516 -0.1338  0.0978
24615SOL    HW175286   6.998   1.618   7.465 -0.6131 -1.2934 -0.1483
24615SOL    HW275287   7.043   1.624   7.321 -1.4521 -2.2526 -0.4606
24616SOL     OW75288   1.798   6.542  10.994 -0.4835 -0.2318  0.0037
24616SOL    HW175289   1.738   6.532  10.920 -0.4770  0.2653 -0.0720
24616SOL    HW275290   1.744   6.576  11.065  0.1405  2.6279 -0.7799
24617SOL     OW75291   2.262   3.171   9.033 -0.4407 -0.1458 -0.7160
24617SOL    HW175292   2.191   3.140   9.088  0.1036 -2.1910 -1.0970
24617SOL    HW275293   2.221   3.234   8.974 -1.6734 -0.3756 -0.1252
24618SOL     OW75294   6.851   1.998   6.967 -0.1393 -0.5400  0.2667
24618SOL    HW175295   6.887   1.994   7.056 -1.3725  0.6158  0.8442
24618SOL    HW275296   6.928   1.988   6.910  0.8908  0.3146  1.4532
24619SOL     OW75297   0.995   4.251   9.582  0.1992 -0.3520  0.1741
24619SOL    HW175298   0.923   4.199   9.547  0.1178 -0.9034  1.1282
24619SOL    HW275299   1.041   4.192   9.642  0.1079  0.6609  1.2775
24620SOL     OW75300   7.348   5.100   4.281  0.0015  0.1159  0.1339
24620SOL    HW175301   7.278   5.157   4.250 -0.4388 -0.3686  0.2284
24620SOL    HW275302   7.359   5.124   4.373  0.4199  0.6463 -0.0431
24621SOL     OW75303   4.533   0.107  12.287 -0.3847  0.1938 -0.1070
24621SOL    HW175304   4.515   0.083  12.196 -0.8056 -0.4062  0.1302
24621SOL    HW275305   4.465   0.172  12.308 -0.5160  0.0570 -0.1065
24622SOL     OW75306   6.475   1.699   8.511 -0.2641  0.1762  0.4032
24622SOL    HW175307   6.463   1.610   8.542  1.6162  0.1558  1.1919
24622SOL    HW275308   6.436   1.754   8.579 -1.3254 -0.0109 -0.0316
24623SOL     OW75309   3.996   2.714   6.697 -0.4610 -0.2017  0.2076
24623SOL    HW175310   3.913   2.761   6.707  0.7686  2.0226  0.3976
24623SOL    HW275311   4.036   2.717   6.784  1.9008  2.9543 -0.8214
24624SOL     OW75312   5.641   3.735  10.143 -0.2537  0.6776  0.7216
24624SOL    HW175313   5.591   3.655  10.158 -3.4063  2.3313  0.0212
24624SOL    HW275314   5.628   3.785  10.224  0.5502  1.0209  0.6387
24625SOL     OW75315   0.701   2.479  11.186 -0.2340 -0.0799  0.1059
24625SOL    HW175316   0.650   2.462  11.106 -0.4328  0.7525  0.0510
24625SOL    HW275317   0.715   2.392  11.224 -0.4020 -0.4573 -0.6723
24626SOL     OW75318   3.038   4.261  12.288  0.3161 -0.0406 -0.2579
24626SOL    HW175319   3.007   4.231  12.373  0.3692 -1.2068 -0.6333
24626SOL    HW275320   3.066   4.181  12.243  0.7758  0.6174 -1.1696
24627SOL     OW75321   2.035   6.691   9.662 -0.1068  0.1393  0.2282
24627SOL    HW175322   2.007   6.613   9.614  0.0879 -0.3012  0.8216
24627SOL    HW275323   2.130   6.692   9.652  0.0142 -0.3620  1.1900
24628SOL     OW75324   3.312   0.920  10.989 -0.1713  0.4771 -0.3841
24628SOL    HW175325   3.382   0.855  10.997 -0.7149  0.0542  1.6092
24628SOL    HW275326   3.358   1.003  10.977  0.6868  0.1759  0.6138
24629SOL     OW75327   4.798   5.311   0.592  0.7908  0.3411  0.5362
24629SOL    HW175328   4.806   5.390   0.539  0.6001 -0.0596 -0.0966
24629SOL    HW275329   4.705   5.288   0.587  1.0966 -0.7604 -0.5066
24630SOL     OW75330   5.820   1.252   8.504 -0.0555  0.0489 -0.0548
24630SOL    HW175331   5.873   1.239   8.426 -0.4382 -1.1196 -0.1434
24630SOL    HW275332   5.740   1.203   8.488 -0.2637  0.0266  0.9438
24631SOL     OW75333   1.703   5.475   1.143 -1.2143  0.3093 -0.2857
24631SOL    HW175334   1.724   5.507   1.055  0.3034  2.4048  0.7437
24631SOL    HW275335   1.628   5.528   1.171 -1.5760 -0.2242 -0.2228
24632SOL     OW75336   7.761   2.248   7.579  0.8150  0.1637  0.0365
24632SOL    HW175337   7.736   2.210   7.495  1.7844  0.5012 -0.4139
24632SOL    HW275338   7.805   2.330   7.557  0.4121  0.6227  0.9111
24633SOL     OW75339   4.679   0.852   3.115  0.4665 -0.1384 -0.5310
24633SOL    HW175340   4.707   0.814   3.199  1.8383 -0.3549 -1.0757
24633SOL    HW275341   4.584   0.836   3.113  0.4922 -0.5881  0.7447
24634SOL     OW75342   2.049   2.278   9.026  0.2101 -0.2932 -0.1915
24634SOL    HW175343   2.140   2.284   8.996 -0.4556 -1.1023 -2.5658
24634SOL    HW275344   2.016   2.367   9.021  0.8690  0.0277  0.7999
24635SOL     OW75345   0.900   3.207   7.864  0.1376  0.0924 -0.4791
24635SOL    HW175346   0.911   3.187   7.957 -0.9254  0.0507 -0.3438
24635SOL    HW275347   0.904   3.303   7.860 -0.3135  0.1205 -0.3133
24636SOL     OW75348   4.259   2.554  10.361  0.3812 -0.7235 -0.4025
24636SOL    HW175349   4.288   2.468  10.389  2.3250  0.0068  0.0124
24636SOL    HW275350   4.224   2.541  10.273  1.7825 -1.7678 -0.8454
24637SOL     OW75351   4.929   0.777  11.535 -0.1831 -0.4719  0.1074
24637SOL    HW175352   5.009   0.803  11.580  0.1242 -1.1855 -0.0223
24637SOL    HW275353   4.867   0.848  11.555  0.6331  0.3712 -0.2695
24638SOL     OW75354   3.946   3.138   1.913  0.1097  0.0862  0.2554
24638SOL    HW175355   3.959   3.172   1.824  1.9795 -0.7373  0.1662
24638SOL    HW275356   3.875   3.074   1.903 -0.7903  1.1514 -0.3196
24639SOL     OW75357   5.422   4.467   3.554  0.1717 -0.0359 -0.0175
24639SOL    HW175358   5.458   4.548   3.517  1.0263  0.0638  1.0127
24639SOL    HW275359   5.498   4.411   3.566  0.1058  0.3453  2.6215
24640SOL     OW75360   3.644   4.076   6.301 -1.0105 -1.0801  0.3794
24640SOL    HW175361   3.575   4.086   6.236 -1.8663  0.1792  1.4403
24640SOL    HW275362   3.681   4.164   6.310  0.9918 -1.7805 -0.4032
24641SOL     OW75363   7.139   5.000   1.646  0.2876 -0.5793  0.3016
24641SOL    HW175364   7.115   5.008   1.554 -1.4814 -2.3252  0.5489
24641SOL    HW275365   7.059   5.020   1.695  1.1388  0.1252  1.4812
24642SOL     OW75366   3.505   7.090   4.163  0.3939 -0.1311 -0.2736
24642SOL    HW175367   3.558   7.163   4.130  0.8593  0.3172  1.3406
24642SOL    HW275368   3.480   7.117   4.251 -1.8326 -0.7144 -0.6609
24643SOL     OW75369   7.472   0.811   6.070  0.0052 -0.5076 -0.4194
24643SOL    HW175370   7.388   0.819   6.114  0.5398  0.2516  0.5065
24643SOL    HW275371   7.527   0.761   6.131  0.3921 -0.5157 -0.7648
24644SOL     OW75372   1.735   0.804   8.234  0.2550  0.5154 -0.4959
24644SOL    HW175373   1.681   0.880   8.212  0.7397  0.6394 -1.2941
24644SOL    HW275374   1.725   0.795   8.329  0.3900  1.7337 -0.3473
24645SOL     OW75375   6.596   4.640  10.171 -0.4253  0.8759 -0.0409
24645SOL    HW175376   6.550   4.556  10.166  0.8283  0.1979 -0.9164
24645SOL    HW275377   6.601   4.670  10.080 -0.5826  1.7460  0.2299
24646SOL     OW75378   5.083   0.019   4.047 -0.3339 -0.1012  0.9291
24646SOL    HW175379   5.177   0.003   4.044 -0.1132  1.1362  0.1949
24646SOL    HW275380   5.058   0.027   3.955 -0.3221  3.7060  1.0797
24647SOL     OW75381   3.851   7.252   3.004 -0.1969  0.2446 -0.2375
24647SOL    HW175382   3.802   7.230   3.083 -0.2552  2.2160  0.3197
24647SOL    HW275383   3.942   7.257   3.033 -0.0784 -0.1069 -0.5446
24648SOL     OW75384   4.898   6.177   4.982  0.3821 -0.4569  0.8967
24648SOL    HW175385   4.879   6.234   5.056  0.3698 -2.4969  2.5366
24648SOL    HW275386   4.859   6.093   5.005 -1.8076 -0.5778 -2.5431
24649SOL     OW75387   6.418   3.511   7.574  0.0109  0.0510  0.6050
24649SOL    HW175388   6.502   3.494   7.531 -0.0015 -0.1522  0.6566
24649SOL    HW275389   6.373   3.572   7.516 -0.4254 -0.9890 -0.1983
24650SOL     OW75390   0.114   5.740   3.096  0.0101 -0.0657 -0.0564
24650SOL    HW175391   0.076   5.782   3.019 -0.5947 -1.0828 -0.3309
24650SOL    HW275392   0.203   5.716   3.069 -0.6150 -1.5386 -0.8742
24651SOL     OW75393   0.301   4.521   5.082  0.6848  0.6657 -0.2796
24651SOL    HW175394   0.385   4.550   5.118  1.3093 -0.2205 -0.9812
24651SOL    HW275395   0.270   4.453   5.142  1.0215  0.2077 -0.6171
24652SOL     OW75396   0.424   5.089   2.200 -0.3547  0.2490  0.0741
24652SOL    HW175397   0.386   5.091   2.113 -1.0258 -1.1344  0.3112
24652SOL    HW275398   0.359   5.044   2.254  0.8732 -0.6479  0.8679
24653SOL     OW75399   4.774   3.326   9.479 -0.5143 -0.5600  0.2733
24653SOL    HW175400   4.709   3.390   9.450 -0.1072  0.1410  0.8784
24653SOL    HW275401   4.749   3.245   9.434 -2.0988 -0.4399  0.8725
24654SOL     OW75402   5.469   6.217   6.721 -0.0474  0.0076 -0.7530
24654SOL    HW175403   5.512   6.201   6.637  0.9745  0.2708 -0.3067
24654SOL    HW275404   5.431   6.133   6.746 -1.7925  0.3092 -2.2333
24655SOL     OW75405   2.539   1.063   2.137  0.1780  1.2795 -0.4266
24655SOL    HW175406   2.594   1.016   2.074  1.7608  0.9915  1.1199
24655SOL    HW275407   2.565   1.154   2.127  1.5740  1.0547  0.8525
24656SOL     OW75408   4.885   2.770  11.233  0.0788 -0.5968 -0.3423
24656SOL    HW175409   4.826   2.735  11.166 -0.4475  1.4369 -1.0158
24656SOL    HW275410   4.944   2.828  11.185  0.2799  0.1988  0.8339
24657SOL     OW75411   5.446   0.279   7.710 -0.1128  0.1634 -0.1100
24657SOL    HW175412   5.361   0.246   7.741 -0.0704 -1.3028 -1.3922
24657SOL    HW275413   5.430   0.303   7.618  0.7113  0.4422 -0.1893
24658SOL     OW75414   0.217   5.222  11.904  0.5002 -0.4747 -0.0652
24658SOL    HW175415   0.232   5.213  11.810  0.6439 -0.3799 -0.0516
24658SOL    HW275416   0.270   5.297  11.930  2.0664 -1.6996  0.4416
24659SOL     OW75417   6.797   5.125   3.549  0.0885 -0.2173 -0.4968
24659SOL    HW175418   6.767   5.164   3.631 -1.8096  2.5674 -2.3084
24659SOL    HW275419   6.739   5.050   3.536  1.1646 -1.4009  1.1748
24660SOL     OW75420   0.570   2.585   8.734 -0.2486  0.0098  0.0126
24660SOL    HW175421   0.547   2.670   8.697 -1.2788 -0.4014 -0.3220
24660SOL    HW275422   0.533   2.586   8.822 -0.1105 -0.0269  0.0713
24661SOL     OW75423   0.591   3.125   9.325 -0.9214 -0.3267 -0.5947
24661SOL    HW175424   0.499   3.145   9.345 -1.2144 -2.6133  0.6227
24661SOL    HW275425   0.627   3.092   9.407  0.4639 -1.2498 -1.5315
24662SOL     OW75426   3.262   0.310   5.499  0.0238  0.3558 -0.0973
24662SOL    HW175427   3.246   0.283   5.409  0.4007 -0.3894  0.0491
24662SOL    HW275428   3.320   0.386   5.492  1.3999 -0.6836 -0.4550
24663SOL     OW75429   1.622   5.635   8.179 -0.0862 -0.3568 -0.1176
24663SOL    HW175430   1.709   5.669   8.160  0.4759 -1.3335  0.6374
24663SOL    HW275431   1.624   5.614   8.273 -1.4436  0.4876  0.1376
24664SOL     OW75432   4.861   0.793  12.283  0.3899  0.0940 -0.4086
24664SOL    HW175433   4.949   0.802  12.248  0.7299  0.5436  0.5407
24664SOL    HW275434   4.848   0.698  12.291  0.7947  0.0267 -0.5239
24665SOL     OW75435   1.821   3.504   6.946 -0.4963  0.1537  0.1753
24665SOL    HW175436   1.743   3.542   6.986 -1.2293 -1.0564 -0.0425
24665SOL    HW275437   1.803   3.410   6.944  0.7968 -0.1056 -0.2695
24666SOL     OW75438   0.449   6.396  10.291  0.5905 -0.0224 -0.3671
24666SOL    HW175439   0.453   6.388  10.196 -0.8076 -2.9172 -0.2997
24666SOL    HW275440   0.534   6.365  10.322  0.3518 -1.0337 -0.6687
24667SOL     OW75441   5.776   7.524   3.619 -0.3518 -0.7126  0.0476
24667SOL    HW175442   5.814   7.472   3.689 -0.2683 -0.5054  0.1590
24667SOL    HW275443   5.851   7.550   3.566 -0.2822  0.0350  0.4945
24668SOL     OW75444   6.570   4.074  11.925  0.3754 -0.3183  0.2845
24668SOL    HW175445   6.531   4.080  11.838  0.0056  2.7735  0.5341
24668SOL    HW275446   6.611   4.160  11.938 -1.2111  0.0735  3.8782
24669SOL     OW75447   0.732   7.431  10.552  0.3726 -0.7351  0.4570
24669SOL    HW175448   0.637   7.420  10.552  0.3691 -0.7064  0.5355
24669SOL    HW275449   0.746   7.525  10.562  0.4148 -0.8599  1.8604
24670SOL     OW75450   6.632   4.693  12.095  0.0449 -0.6577  0.4414
24670SOL    HW175451   6.715   4.650  12.118  0.2421  0.4346  1.8803
24670SOL    HW275452   6.569   4.658  12.157 -0.3283 -0.6071  0.0953
24671SOL     OW75453   0.867   2.128   2.947  0.3858  0.3543  0.0070
24671SOL    HW175454   0.921   2.050   2.964 -0.7642  0.0571  2.8067
24671SOL    HW275455   0.815   2.139   3.027 -0.7007  3.0524 -0.9635
24672SOL     OW75456   4.551   1.793  11.492 -0.4931  0.7544 -0.5077
24672SOL    HW175457   4.498   1.723  11.454 -1.2764  0.8279  0.4098
24672SOL    HW275458   4.638   1.781  11.454 -0.5920 -0.7692 -0.3182
24673SOL     OW75459   2.846   0.572   2.149  0.3240  0.5747 -0.2680
24673SOL    HW175460   2.751   0.570   2.142  0.2745  0.3715  0.3514
24673SOL    HW275461   2.864   0.545   2.239  1.0429 -1.2162 -0.8929
24674SOL     OW75462   5.585   1.069   8.089 -0.0316 -0.3743  0.3516
24674SOL    HW175463   5.515   1.124   8.123  0.2013 -0.7527  1.4942
24674SOL    HW275464   5.649   1.130   8.052 -0.8414 -0.0177 -0.4906
24675SOL     OW75465   7.419   3.557   9.931  0.3452 -0.4159 -0.3167
24675SOL    HW175466   7.329   3.554   9.964  0.4923 -0.0067  0.1240
24675SOL    HW275467   7.472   3.579  10.007  0.6046  1.3746 -0.9754
24676SOL     OW75468   3.833   5.677   0.280 -0.1487 -0.5466  0.0783
24676SOL    HW175469   3.738   5.687   0.276 -0.2256 -1.0265  0.6043
24676SOL    HW275470   3.848   5.584   0.264  0.3420 -0.2089 -1.6073
24677SOL     OW75471   0.225   3.967   6.235 -0.5795 -0.3604  0.3790
24677SOL    HW175472   0.210   3.873   6.224 -2.6055 -0.1150  0.6580
24677SOL    HW275473   0.293   3.989   6.171 -0.4943 -1.8981 -0.0844
24678SOL     OW75474   5.720   3.808   1.964 -0.0389  0.3852  0.2084
24678SOL    HW175475   5.758   3.731   1.921  0.5997  1.0414 -0.4149
24678SOL    HW275476   5.773   3.882   1.934  0.0911  0.9367  1.7100
24679SOL     OW75477   3.558   3.345   0.434 -0.1806 -0.1151  0.0911
24679SOL    HW175478   3.617   3.391   0.374 -0.1929  0.4631  0.5259
24679SOL    HW275479   3.606   3.266   0.458  0.9512  0.9231  1.3965
24680SOL     OW75480   6.180   6.728   8.078  0.1603  0.0569 -0.2876
24680SOL    HW175481   6.163   6.647   8.031 -1.7703  0.1153  0.2390
24680SOL    HW275482   6.243   6.776   8.023  1.0061 -1.5838 -0.8043
24681SOL     OW75483   7.234   4.472   2.567 -1.2507  0.4507  0.0303
24681SOL    HW175484   7.312   4.493   2.516 -1.1197 -2.8080 -1.3012
24681SOL    HW275485   7.172   4.541   2.543  0.2925  1.5806 -0.9806
24682SOL     OW75486   2.807   6.843   8.037 -0.6277 -0.2899  0.4094
24682SOL    HW175487   2.778   6.871   7.951  1.2392  0.1964 -0.1219
24682SOL    HW275488   2.801   6.747   8.034  2.5521 -0.5957 -1.6185
24683SOL     OW75489   2.330   7.364   1.839  0.2269 -0.0166 -0.8129
24683SOL    HW175490   2.397   7.386   1.774 -1.9859 -0.9480 -3.6187
24683SOL    HW275491   2.328   7.268   1.839  0.0428 -0.0341  0.5653
24684SOL     OW75492   1.246   7.741   4.381  0.0851  0.1290  0.3004
24684SOL    HW175493   1.192   7.669   4.349  0.7276 -0.3817  0.3427
24684SOL    HW275494   1.331   7.727   4.339 -0.0890  1.4822 -0.5611
24685SOL     OW75495   3.098   6.533   1.292  0.6076  0.5315  0.1030
24685SOL    HW175496   3.105   6.438   1.284  1.1297  0.6251 -0.5445
24685SOL    HW275497   3.007   6.548   1.319  0.5145 -0.1447  0.1698
24686SOL     OW75498   6.765   7.847   2.584  0.1148  0.8263 -0.4802
24686SOL    HW175499   6.730   7.780   2.525  0.3296 -0.3677  0.7183
24686SOL    HW275500   6.725   7.929   2.553 -1.4094 -0.0676 -0.9722
24687SOL     OW75501   4.408   6.516   3.027  0.4809  0.4177 -0.4585
24687SOL    HW175502   4.482   6.516   2.965 -0.7512 -0.1506 -1.9815
24687SOL    HW275503   4.388   6.609   3.039 -0.1925  0.5299 -2.1241
24688SOL     OW75504   0.329   6.751   8.303  0.0137  0.2827  0.1849
24688SOL    HW175505   0.287   6.739   8.388  1.6341  0.6226  1.0650
24688SOL    HW275506   0.329   6.845   8.288 -1.1807  0.1603 -0.6931
24689SOL     OW75507   5.276   0.669   5.234  0.4370  0.1915  0.3695
24689SOL    HW175508   5.192   0.713   5.232  0.5692  0.4356 -0.7956
24689SOL    HW275509   5.329   0.719   5.296  0.2813  1.1056 -0.2271
24690SOL     OW75510   6.602   4.869  10.345 -0.0175  0.0835 -0.3291
24690SOL    HW175511   6.590   4.794  10.287 -1.9260  0.3579 -0.3407
24690SOL    HW275512   6.562   4.842  10.428 -1.7899  1.4359 -0.6764
24691SOL     OW75513   0.271   2.810  10.542  0.1141 -0.4046 -0.5941
24691SOL    HW175514   0.224   2.890  10.565  1.8309  0.2537  0.8338
24691SOL    HW275515   0.336   2.838  10.478 -0.1795 -0.9596 -1.1540
24692SOL     OW75516   0.995   1.521   9.629 -0.9401 -0.4176 -0.1623
24692SOL    HW175517   1.051   1.449   9.658  0.0662  0.9503  1.4688
24692SOL    HW275518   0.915   1.510   9.680  0.0325  0.7792  1.7343
24693SOL     OW75519   5.385   3.082  11.292  0.1778 -0.2120 -0.0841
24693SOL    HW175520   5.422   2.998  11.264  1.1019  0.4367 -0.8600
24693SOL    HW275521   5.437   3.148  11.246 -1.4445  0.7679 -0.6080
24694SOL     OW75522   3.150   7.404   5.926 -0.0478  0.0266  0.2247
24694SOL    HW175523   3.062   7.428   5.895  0.0181  0.3775  0.3084
24694SOL    HW275524   3.140   7.315   5.958 -0.6870  0.5194  1.4780
24695SOL     OW75525   5.947   4.353  10.254 -0.3716  0.1860  0.3118
24695SOL    HW175526   5.900   4.430  10.222 -0.6645  0.4317  1.3114
24695SOL    HW275527   6.037   4.382  10.267 -0.6102  0.5160  1.2371
24696SOL     OW75528   6.579   0.227   1.225 -0.6046 -0.1226 -0.0198
24696SOL    HW175529   6.610   0.176   1.150 -0.6124  0.0709 -0.1570
24696SOL    HW275530   6.561   0.162   1.293  1.0571 -0.1832  0.4108
24697SOL     OW75531   1.970   5.262   8.519  0.0171 -0.2020  0.8708
24697SOL    HW175532   1.900   5.316   8.484  1.1119  0.5293 -0.2786
24697SOL    HW275533   1.942   5.172   8.503 -0.7942  0.0723  0.7308
24698SOL     OW75534   7.315   0.094  10.124  0.0555  0.4884 -0.0699
24698SOL    HW175535   7.287   0.115  10.035 -0.5954 -0.2347 -0.0465
24698SOL    HW275536   7.320   0.179  10.168  0.7907  0.8976 -0.8964
24699SOL     OW75537   5.910   7.469   6.592 -0.7284 -0.3368  0.1380
24699SOL    HW175538   5.978   7.427   6.540  0.9078  1.5990  0.5857
24699SOL    HW275539   5.863   7.525   6.530 -1.5179 -1.1727 -0.0380
24700SOL     OW75540   0.583   7.591   9.675 -0.4655  0.5682  0.4587
24700SOL    HW175541   0.581   7.593   9.579 -1.8935  1.8262  0.4668
24700SOL    HW275542   0.575   7.683   9.701 -2.3126  0.1160  1.7428
24701SOL     OW75543   1.800   0.555   4.112  0.3515  0.1655 -0.2927
24701SOL    HW175544   1.741   0.542   4.186  1.7524 -1.2419  0.6526
24701SOL    HW275545   1.743   0.570   4.037 -1.2887 -2.3372  0.3538
24702SOL     OW75546   7.353   7.758   2.245 -0.1650 -0.2170  0.1178
24702SOL    HW175547   7.400   7.762   2.162 -0.2305  1.0059  0.1208
24702SOL    HW275548   7.385   7.678   2.287  1.6893  0.3888 -0.0317
24703SOL     OW75549   6.878   7.108   7.037  0.2897 -0.1893 -0.3212
24703SOL    HW175550   6.944   7.171   7.066  0.6814 -0.4258 -0.6859
24703SOL    HW275551   6.896   7.029   7.089  0.8542 -0.5416 -1.0345
24704SOL     OW75552   3.069   5.679   2.587  0.3286 -0.1704 -0.1967
24704SOL    HW175553   3.019   5.628   2.650 -0.4543  2.5423  1.5414
24704SOL    HW275554   3.155   5.690   2.628 -0.1583  1.5293  0.5032
24705SOL     OW75555   7.022   4.396   2.864  0.0207  0.5243 -0.1873
24705SOL    HW175556   7.001   4.336   2.793  0.2272  0.4298 -0.1705
24705SOL    HW275557   6.941   4.403   2.915  0.1757 -0.2440  0.1771
24706SOL     OW75558   4.007   7.926   8.159  0.1652 -0.0301 -0.3222
24706SOL    HW175559   4.001   8.017   8.187  0.4380  0.2382 -1.0951
24706SOL    HW275560   3.922   7.907   8.121  0.3600  0.1490 -0.8563
24707SOL     OW75561   4.859   4.597  10.825 -0.4822 -0.3575 -0.3335
24707SOL    HW175562   4.881   4.657  10.753 -2.4289  0.5314 -0.2667
24707SOL    HW275563   4.943   4.579  10.868  0.5669 -0.0238 -2.1361
24708SOL     OW75564   0.789   5.085   8.602  0.7103  0.9178 -0.1930
24708SOL    HW175565   0.802   5.168   8.556  0.0629  0.5587 -1.0500
24708SOL    HW275566   0.722   5.039   8.551  0.1634  0.3834  0.9494
24709SOL     OW75567   7.839   5.886   9.357 -0.0892 -0.4325 -0.2090
24709SOL    HW175568   7.921   5.892   9.308  1.8816 -0.8183  2.8168
24709SOL    HW275569   7.832   5.970   9.402 -2.2812  0.2299 -1.6348
24710SOL     OW75570   4.037   3.800   8.290 -0.2158  0.7478 -0.3335
24710SOL    HW175571   4.051   3.849   8.209 -1.1839  0.3884 -0.7259
24710SOL    HW275572   4.125   3.792   8.328  0.0136  2.5797 -0.3609
24711SOL     OW75573   4.900   2.427   7.171  0.3324 -0.1330 -0.1826
24711SOL    HW175574   4.813   2.457   7.199  0.1251 -0.5856 -0.3368
24711SOL    HW275575   4.952   2.507   7.166 -0.4847  0.3453 -1.5990
24712SOL     OW75576   5.437   7.290   3.692 -0.1259 -1.0339  0.6836
24712SOL    HW175577   5.413   7.376   3.659  1.2112 -1.0310 -0.3762
24712SOL    HW275578   5.522   7.304   3.735  0.6750 -1.9902 -0.5135
24713SOL     OW75579   5.402   3.334   4.384 -0.3473 -0.2207  0.0886
24713SOL    HW175580   5.365   3.420   4.404 -0.6779 -0.6437  1.3339
24713SOL    HW275581   5.331   3.272   4.399 -0.2391 -0.6926 -1.2174
24714SOL     OW75582   2.964   3.002   5.565  0.5357 -0.7498 -0.6590
24714SOL    HW175583   3.047   3.017   5.610  0.6961 -3.4139  0.1044
24714SOL    HW275584   2.982   2.929   5.506 -1.3437 -1.6621 -0.1639
24715SOL     OW75585   0.219   1.616   3.801 -0.2674  0.3961  0.1230
24715SOL    HW175586   0.259   1.533   3.826  0.6839 -0.1078 -2.7906
24715SOL    HW275587   0.292   1.671   3.775 -1.0818  1.3507 -0.2056
24716SOL     OW75588   6.010   0.488  10.188 -0.2716 -0.3868  0.5796
24716SOL    HW175589   5.936   0.442  10.229  0.0560 -1.3656  0.1136
24716SOL    HW275590   6.016   0.571  10.236 -1.7611 -0.2155  0.5298
24717SOL     OW75591   1.592   4.913  12.085  0.3599  0.3847  0.8158
24717SOL    HW175592   1.605   4.978  12.154  2.2743  0.5796  0.3322
24717SOL    HW275593   1.587   4.829  12.131  1.1116  0.5639  1.2349
24718SOL     OW75594   4.591   2.703  10.171  0.4198 -0.1116 -0.0569
24718SOL    HW175595   4.630   2.636  10.227 -1.4651  0.1398  1.7208
24718SOL    HW275596   4.544   2.654  10.103  1.7426 -0.4626 -0.7381
24719SOL     OW75597   5.781   7.671   6.929 -0.6242 -0.2539  0.0213
24719SOL    HW175598   5.790   7.739   6.863 -1.9811  0.8256  0.8978
24719SOL    HW275599   5.866   7.626   6.930  0.5111  1.8028 -0.1848
24720SOL     OW75600   0.109   2.678   3.088 -0.0881 -0.3300  0.1413
24720SOL    HW175601   0.195   2.658   3.124 -0.0498 -0.3533  0.0367
24720SOL    HW275602   0.070   2.740   3.150 -0.5872 -1.4325  0.9677
24721SOL     OW75603   7.912   6.085   8.999 -0.4173  0.4462  0.6465
24721SOL    HW175604   7.962   6.161   9.028 -0.5634  0.5249  0.6954
24721SOL    HW275605   7.974   6.033   8.948 -0.7338  1.3887 -0.7418
24722SOL     OW75606   5.376   2.732   9.581  0.5216  0.1238  0.1275
24722SOL    HW175607   5.327   2.755   9.659  0.9916  0.9521  0.1919
24722SOL    HW275608   5.361   2.638   9.569  0.0595  0.0929  0.9288
24723SOL     OW75609   1.069   6.116  10.361 -0.2605  0.3912  0.8861
24723SOL    HW175610   1.081   6.048  10.295 -2.8554  0.8883 -0.1967
24723SOL    HW275611   1.157   6.128  10.399  0.8486 -1.4704 -0.8894
24724SOL     OW75612   0.668   3.203   4.281 -0.1449  0.2716 -0.4348
24724SOL    HW175613   0.684   3.191   4.374  0.3058 -3.2701 -0.8179
24724SOL    HW275614   0.573   3.195   4.271 -0.0957 -0.4110 -0.3744
24725SOL     OW75615   6.532   0.304   5.464 -0.0239 -0.1806  0.7516
24725SOL    HW175616   6.571   0.239   5.522  2.7464 -0.2583 -1.0008
24725SOL    HW275617   6.607   0.345   5.421 -1.8547  0.9223 -1.6156
24726SOL     OW75618   6.461   1.119   5.113  0.1480  0.3915 -0.0828
24726SOL    HW175619   6.551   1.087   5.102  0.6926  1.6394  0.5985
24726SOL    HW275620   6.407   1.040   5.109  1.4769 -0.6907  1.8854
24727SOL     OW75621   0.506   3.889   9.485  0.1049  0.6172  0.2756
24727SOL    HW175622   0.458   3.972   9.480  0.1455  0.6253  0.0206
24727SOL    HW275623   0.512   3.859   9.395  0.5193  0.5794  0.3115
24728SOL     OW75624   0.490   2.002   3.222 -0.4358 -0.0137 -0.3117
24728SOL    HW175625   0.438   1.922   3.231 -2.1488  0.8085 -2.0598
24728SOL    HW275626   0.580   1.972   3.210 -0.9456 -1.6286 -0.2656
24729SOL     OW75627   4.616   7.233   9.701 -0.4992 -0.3744  0.3726
24729SOL    HW175628   4.580   7.322   9.692 -0.5643 -0.4459 -0.1232
24729SOL    HW275629   4.607   7.195   9.614  1.4369 -0.1543  0.0320
24730SOL     OW75630   2.632   7.053   8.179  0.0389  0.0154  0.1868
24730SOL    HW175631   2.684   6.997   8.237 -2.6165 -2.0618  0.7360
24730SOL    HW275632   2.636   7.140   8.220  1.8960 -0.3634  0.9274
24731SOL     OW75633   0.349   1.865   2.108  0.1681  0.0964  0.0260
24731SOL    HW175634   0.368   1.896   2.197  1.6381 -0.9190  0.0939
24731SOL    HW275635   0.303   1.783   2.120  0.8366 -0.3084 -0.1388
24732SOL     OW75636   4.553   2.103  10.861  0.4078  0.1577 -0.8098
24732SOL    HW175637   4.497   2.052  10.920 -0.5539  0.7495 -1.1859
24732SOL    HW275638   4.572   2.184  10.909 -0.0611  0.4748 -1.1468
24733SOL     OW75639   6.404   6.770  10.239  0.3679 -0.3820 -0.2029
24733SOL    HW175640   6.471   6.761  10.171  1.5338 -1.0514  0.9958
24733SOL    HW275641   6.437   6.719  10.312 -0.5838  0.7959  1.0997
24734SOL     OW75642   7.021   3.192   1.917  0.0425 -0.0515 -0.1509
24734SOL    HW175643   7.021   3.172   2.011  1.8729 -4.2547 -0.8218
24734SOL    HW275644   7.113   3.209   1.896 -0.1601 -0.3501 -1.3660
24735SOL     OW75645   3.003   3.554   6.866 -0.2075  0.3785  0.3419
24735SOL    HW175646   3.058   3.632   6.873 -1.1000  1.3336 -2.1773
24735SOL    HW275647   3.053   3.495   6.809 -1.1321  0.7100 -0.8652
24736SOL     OW75648   4.067   4.477   1.210  0.5529  0.0121 -0.1675
24736SOL    HW175649   4.094   4.414   1.277  0.5648 -0.3330 -0.4852
24736SOL    HW275650   4.101   4.561   1.240 -1.0905  0.2271  1.2295
24737SOL     OW75651   3.783   1.342   5.951 -0.1632  0.2530  0.6161
24737SOL    HW175652   3.799   1.426   5.909 -0.2117 -0.0399  0.0019
24737SOL    HW275653   3.712   1.359   6.013  0.5940  0.9204  1.3320
24738SOL     OW75654   1.535   4.793   9.884  0.1956 -0.0107  0.1622
24738SOL    HW175655   1.535   4.885   9.908  0.9996  0.6408 -2.0578
24738SOL    HW275656   1.624   4.763   9.903  0.3723  0.0861 -0.4945
24739SOL     OW75657   0.788   5.832  11.260 -0.1354 -0.4112  0.2344
24739SOL    HW175658   0.845   5.899  11.296 -0.2701  0.4146 -1.0254
24739SOL    HW275659   0.820   5.750  11.298  0.2453  0.3156  1.5301
24740SOL     OW75660   4.570   2.130   7.677  0.0982  0.2350  0.0162
24740SOL    HW175661   4.620   2.049   7.666  0.0981  0.2195  0.1368
24740SOL    HW275662   4.584   2.156   7.768  0.1845  0.4276 -0.0510
24741SOL     OW75663   6.935   1.393   1.499  0.7472  0.1970  0.3067
24741SOL    HW175664   6.979   1.455   1.558 -0.1751 -0.3081  1.5556
24741SOL    HW275665   6.842   1.411   1.510  0.4883 -1.0356  0.2734
24742SOL     OW75666   3.104   6.745   7.685  0.1549 -0.3865  0.1544
24742SOL    HW175667   3.070   6.828   7.718  0.8738 -0.8550  2.2638
24742SOL    HW275668   3.121   6.693   7.764  1.7838 -1.7097 -0.9914
24743SOL     OW75669   0.736   3.006   0.331 -0.1333  0.1381  1.1010
24743SOL    HW175670   0.686   2.983   0.252  1.9527  2.6880 -1.1271
24743SOL    HW275671   0.685   3.076   0.372  0.2073  0.8257  0.3687
24744SOL     OW75672   0.669   2.322   8.670  0.3679 -0.1292  0.5901
24744SOL    HW175673   0.615   2.401   8.666  0.0627 -0.2668  1.5885
24744SOL    HW275674   0.676   2.293   8.579  1.4004  1.6356  0.0503
24745SOL     OW75675   7.819   0.502   9.248 -0.1950  0.6179 -0.2025
24745SOL    HW175676   7.789   0.567   9.312 -0.3707  1.8977 -1.5410
24745SOL    HW275677   7.881   0.549   9.193 -0.2982 -0.3619 -1.1842
24746SOL     OW75678   4.447   1.008   6.762 -0.1545  0.0714  0.4104
24746SOL    HW175679   4.407   1.086   6.726  0.1452 -0.0857 -0.2762
24746SOL    HW275680   4.401   0.993   6.845 -0.5861  0.6525  0.2781
24747SOL     OW75681   1.520   3.046   0.523 -0.1707 -0.5544 -0.0556
24747SOL    HW175682   1.479   3.051   0.609  0.8863 -1.3915  0.5188
24747SOL    HW275683   1.532   2.953   0.507  2.3381 -0.3345  0.2327
24748SOL     OW75684   2.024   1.057  10.342  0.9102  0.7796  0.2783
24748SOL    HW175685   2.032   1.001  10.265  1.5499  1.2194  0.0157
24748SOL    HW275686   1.987   1.000  10.410  0.4537  0.3609 -0.3167
24749SOL     OW75687   6.737   3.061   6.264  0.0021 -0.1627  0.1703
24749SOL    HW175688   6.665   3.050   6.326 -0.4315 -0.3878 -0.3563
24749SOL    HW275689   6.715   3.142   6.217  0.7500  0.4457  0.8598
24750SOL     OW75690   2.012   3.063   9.604 -0.3328  0.6154 -0.6448
24750SOL    HW175691   1.947   3.123   9.641 -0.6446 -0.3468  0.4438
24750SOL    HW275692   2.069   3.119   9.551 -0.4266  1.9367  0.5713
24751SOL     OW75693   1.152   4.184   8.550 -0.0216  0.3210 -0.3065
24751SOL    HW175694   1.209   4.131   8.605 -0.1763  0.7538  0.2742
24751SOL    HW275695   1.085   4.123   8.519 -0.1831  0.1750  0.3329
24752SOL     OW75696   6.782   7.152   3.208  0.1667  0.4262  0.3901
24752SOL    HW175697   6.755   7.185   3.293 -0.5361  1.5555 -0.2377
24752SOL    HW275698   6.748   7.216   3.145  0.1459 -0.6849 -0.7841
24753SOL     OW75699   4.997   6.512   0.959 -0.4988 -0.3490  0.1269
24753SOL    HW175700   5.079   6.562   0.960 -0.8708  0.2724 -0.1539
24753SOL    HW275701   4.971   6.506   1.050 -0.3864 -0.1419  0.1733
24754SOL     OW75702   3.612   6.579   9.295 -0.3317 -0.0954 -0.0808
24754SOL    HW175703   3.552   6.651   9.313  1.0561  1.3641 -0.9846
24754SOL    HW275704   3.697   6.610   9.327  0.0959 -1.8534  0.6266
24755SOL     OW75705   0.607   2.092   0.213  0.1074 -0.4308 -0.1323
24755SOL    HW175706   0.701   2.107   0.207  0.4427 -1.8288  1.0593
24755SOL    HW275707   0.592   2.074   0.306 -1.1824 -1.1577 -0.4653
24756SOL     OW75708   6.857   6.521   7.665 -0.5630  0.3748 -0.0483
24756SOL    HW175709   6.840   6.586   7.597  0.9946  0.1067 -0.7569
24756SOL    HW275710   6.834   6.437   7.624 -3.5131  0.4697  1.1965
24757SOL     OW75711   5.117   5.581  10.003 -0.3428  0.3742 -0.2464
24757SOL    HW175712   5.125   5.673   9.978 -0.1348  0.9363  1.7729
24757SOL    HW275713   5.122   5.534   9.920  2.4083  1.9970 -1.1564
24758SOL     OW75714   4.674   0.817   1.946 -0.5732  0.0250  0.3132
24758SOL    HW175715   4.643   0.908   1.949 -1.4557 -0.1628 -1.4878
24758SOL    HW275716   4.602   0.769   1.905 -0.2705 -1.5772  1.5641
24759SOL     OW75717   6.980   2.614   9.093  0.4087 -0.5880 -0.4951
24759SOL    HW175718   6.930   2.536   9.069  1.0306 -1.0193 -0.3982
24759SOL    HW275719   6.914   2.684   9.098  0.0939 -0.6847 -2.4567
24760SOL     OW75720   3.006   4.131   0.479 -0.3308 -0.1448 -0.2690
24760SOL    HW175721   2.959   4.167   0.554 -0.8464 -0.6891 -0.3252
24760SOL    HW275722   2.971   4.178   0.404  1.9042  2.1816  0.0019
24761SOL     OW75723   4.307   5.502  12.183 -0.7448  0.0649  0.0319
24761SOL    HW175724   4.234   5.460  12.139 -2.4201  1.4103  1.3699
24761SOL    HW275725   4.320   5.585  12.136 -0.5172  0.1346  0.2119
24762SOL     OW75726   0.209   7.659   9.079 -0.4556  0.4133  0.8348
24762SOL    HW175727   0.239   7.610   9.155 -1.3230 -2.0052 -0.2914
24762SOL    HW275728   0.132   7.707   9.110  0.9806  1.9622  2.2049
24763SOL     OW75729   2.644   5.811  12.352  0.2591  0.0089 -0.4195
24763SOL    HW175730   2.656   5.816  12.258 -0.2733 -1.7431 -0.6122
24763SOL    HW275731   2.591   5.888  12.373 -0.5368 -0.1445 -1.7276
24764SOL     OW75732   6.585   0.386   3.217  0.3931  0.4261  0.9420
24764SOL    HW175733   6.572   0.374   3.311  0.8472  2.8695  1.3922
24764SOL    HW275734   6.678   0.407   3.208  0.2145  0.8921  0.0676
24765SOL     OW75735   1.741   1.875   3.655  0.1126 -0.1750  0.0986
24765SOL    HW175736   1.700   1.794   3.684  2.1232 -1.3206 -0.0932
24765SOL    HW275737   1.696   1.944   3.704 -1.8682 -1.3435  0.0069
24766SOL     OW75738   0.136   6.152   3.638 -0.6794  0.7027 -0.1942
24766SOL    HW175739   0.093   6.223   3.590 -1.7639  0.7205  0.7706
24766SOL    HW275740   0.196   6.196   3.698 -0.0003  0.7136 -0.8625
24767SOL     OW75741   4.086   6.131   9.194  0.5592  0.0675 -0.1258
24767SOL    HW175742   4.024   6.057   9.199  0.8844 -0.1708  0.4875
24767SOL    HW275743   4.039   6.203   9.236 -0.4115  0.6923 -2.1767
24768SOL     OW75744   1.272   0.584   7.981  0.0929  0.0354  0.3278
24768SOL    HW175745   1.238   0.673   7.967 -2.7561 -1.3897 -3.8967
24768SOL    HW275746   1.197   0.534   8.011  1.1650 -1.3565  0.7866
24769SOL     OW75747   1.563   3.482   6.396 -0.2556  0.4100 -0.2044
24769SOL    HW175748   1.611   3.477   6.314  0.4129  1.1796  0.1221
24769SOL    HW275749   1.491   3.543   6.379 -1.4108 -1.0587 -0.8141
24770SOL     OW75750   5.295   0.748   3.644 -0.0149 -0.1465  0.2735
24770SOL    HW175751   5.350   0.672   3.624  1.2499  0.0927  2.4766
24770SOL    HW275752   5.345   0.823   3.611 -0.2453 -0.1103  0.0040
24771SOL     OW75753   7.137   2.547  10.163 -0.6365 -0.1802  0.1509
24771SOL    HW175754   7.141   2.468  10.109  2.2630  1.7478 -2.8050
24771SOL    HW275755   7.074   2.603  10.118  2.0576  1.5797 -1.7037
24772SOL     OW75756   0.214   6.433   1.101  0.4023 -0.7714  0.5389
24772SOL    HW175757   0.288   6.426   1.161  2.3217 -0.1768 -1.6446
24772SOL    HW275758   0.202   6.527   1.087  0.8014 -0.9112 -0.9122
24773SOL     OW75759   1.934   7.440  10.766  0.7440 -0.1812  0.0805
24773SOL    HW175760   1.950   7.424  10.859 -0.9778  0.7669  0.5796
24773SOL    HW275761   1.981   7.370  10.721 -1.7685 -3.2319  1.8305
24774SOL     OW75762   7.299   0.988  12.099 -0.2567  0.7695 -0.0143
24774SOL    HW175763   7.354   1.048  12.049  0.5104 -1.3744 -1.9695
24774SOL    HW275764   7.344   0.978  12.183  0.9493  1.0522 -0.6053
24775SOL     OW75765   0.253   5.091   4.062 -0.4008  0.0272  0.1095
24775SOL    HW175766   0.209   5.077   3.979  1.6579  0.7671 -1.1962
24775SOL    HW275767   0.256   5.186   4.072  0.7503  0.0001  0.1936
24776SOL     OW75768   2.877   1.688  12.011  0.2266 -0.7539  0.3192
24776SOL    HW175769   2.847   1.759  11.953  0.9743 -0.3687  0.3892
24776SOL    HW275770   2.846   1.608  11.968 -0.3688 -0.4095  0.0831
24777SOL     OW75771   6.079   3.724   6.185 -0.8748 -0.0687 -0.2534
24777SOL    HW175772   6.171   3.739   6.206 -1.0392  0.3067  0.1989
24777SOL    HW275773   6.075   3.631   6.162 -0.6963 -0.5228  1.4340
24778SOL     OW75774   1.373   5.855   8.524 -0.2080  0.1803 -0.2976
24778SOL    HW175775   1.334   5.830   8.608  0.6302 -0.3645 -0.0557
24778SOL    HW275776   1.398   5.946   8.536  2.9450 -0.7558  1.2857
24779SOL     OW75777   0.023   0.661   7.889 -0.4100 -0.0316 -0.1744
24779SOL    HW175778   0.103   0.695   7.849  0.6792 -1.2584  0.8729
24779SOL    HW275779   0.040   0.665   7.983 -1.9444  0.5016  0.1093
24780SOL     OW75780   0.068   0.323   6.781 -0.1728 -0.1215  0.0067
24780SOL    HW175781   0.030   0.244   6.821 -0.9995  0.1820 -0.1473
24780SOL    HW275782   0.162   0.311   6.789 -0.2688  0.2236  2.6844
24781SOL     OW75783   1.439   2.778   7.243  0.5742  0.4511  0.1885
24781SOL    HW175784   1.462   2.846   7.179 -3.1327  1.3662 -0.4358
24781SOL    HW275785   1.370   2.818   7.296 -0.3362 -2.1561  1.1306
24782SOL     OW75786   5.036   7.455   3.422 -0.0431  0.0752 -0.4206
24782SOL    HW175787   5.055   7.540   3.461  1.2945 -0.2279 -0.3365
24782SOL    HW275788   4.975   7.413   3.483  0.8510  0.1931  0.5899
24783SOL     OW75789   3.232   5.854  11.970  0.6945  0.2636  0.4750
24783SOL    HW175790   3.203   5.843  12.061  1.8429 -0.4073  0.7842
24783SOL    HW275791   3.273   5.770  11.948 -0.2572  0.1374 -0.9370
24784SOL     OW75792   5.935   3.454  10.629  0.3503 -0.3846 -0.1247
24784SOL    HW175793   5.873   3.506  10.679 -0.9475 -0.8423 -1.1916
24784SOL    HW275794   5.961   3.383  10.688  0.3636  0.1767  0.5470
24785SOL     OW75795   1.154   5.757   2.037  0.2832  0.4050  0.3738
24785SOL    HW175796   1.177   5.835   2.087 -1.6652  0.7842  0.7447
24785SOL    HW275797   1.070   5.728   2.073  0.2477 -1.0060 -0.7370
24786SOL     OW75798   6.883   5.611   7.197  0.1318 -0.0170  0.0839
24786SOL    HW175799   6.805   5.566   7.164 -0.3235 -0.6335  1.8668
24786SOL    HW275800   6.954   5.548   7.187  0.7304  0.9409 -2.5984
24787SOL     OW75801   1.731   2.657  11.170  0.0927 -0.5166 -0.6220
24787SOL    HW175802   1.642   2.622  11.168 -0.1148 -0.0530 -0.0243
24787SOL    HW275803   1.779   2.608  11.103 -0.7129 -0.4834 -1.2294
24788SOL     OW75804   2.777   3.229   8.808  0.4679  0.3803  0.0694
24788SOL    HW175805   2.689   3.196   8.790  1.2952 -1.5407 -0.7110
24788SOL    HW275806   2.794   3.290   8.736 -0.0162  0.3545 -0.0753
24789SOL     OW75807   5.432   2.525   5.192  0.0040  0.0299 -0.2421
24789SOL    HW175808   5.358   2.494   5.244  0.1672 -2.4970 -1.3935
24789SOL    HW275809   5.392   2.569   5.117 -0.2745  0.2226  0.0159
24790SOL     OW75810   1.297   2.235   5.191 -0.4357 -0.6441 -0.6057
24790SOL    HW175811   1.332   2.301   5.130 -2.4321  0.6816 -0.4024
24790SOL    HW275812   1.256   2.170   5.134 -0.5393 -0.4577 -0.7477
24791SOL     OW75813   3.647   4.155  10.210 -0.1751  0.1693 -0.4231
24791SOL    HW175814   3.686   4.071  10.188  0.8838  0.4206  0.4319
24791SOL    HW275815   3.687   4.217  10.149 -0.0617  0.2493 -0.2662
24792SOL     OW75816   2.660   6.162   2.920  0.3266  0.4077 -0.3584
24792SOL    HW175817   2.651   6.257   2.918  1.7580  0.5695 -0.2392
24792SOL    HW275818   2.570   6.129   2.918 -0.3285  1.8046  1.9893
24793SOL     OW75819   0.752   5.049  10.723  0.2266  0.3820 -0.2341
24793SOL    HW175820   0.709   4.969  10.694  0.5234 -0.2532  1.0208
24793SOL    HW275821   0.731   5.055  10.816  1.9480  0.6367  0.1632
24794SOL     OW75822   4.310   6.080   8.036  0.7986 -1.1422  0.5292
24794SOL    HW175823   4.372   6.092   7.964  0.8290 -3.1524  0.1760
24794SOL    HW275824   4.334   6.149   8.098 -0.3135  1.7819 -2.0111
24795SOL     OW75825   7.748   7.093   1.693  0.6815  0.8868 -0.6703
24795SOL    HW175826   7.683   7.145   1.647 -0.4379 -0.6308 -0.8936
24795SOL    HW275827   7.787   7.038   1.625 -0.5267 -0.9063 -0.0044
24796SOL     OW75828   4.036   5.807   6.583 -0.0637 -0.3917  0.3605
24796SOL    HW175829   4.000   5.819   6.670 -1.2182  0.7518 -0.2453
24796SOL    HW275830   4.019   5.890   6.538  0.3643 -1.0089 -0.9882
24797SOL     OW75831   0.983   3.057   8.865  0.7119 -0.1797  0.6867
24797SOL    HW175832   1.074   3.073   8.839  0.7708 -2.0249 -0.3982
24797SOL    HW275833   0.934   3.127   8.821  1.4705  0.0745  0.2187
24798SOL     OW75834   3.317   3.365   4.116 -0.2774  0.1691  0.5322
24798SOL    HW175835   3.406   3.338   4.094  0.2207  0.7537  1.7515
24798SOL    HW275836   3.284   3.406   4.036  1.1452  1.4271  0.5436
24799SOL     OW75837   5.747   7.718   9.503  0.0893 -0.3083 -0.6197
24799SOL    HW175838   5.822   7.776   9.505 -0.1088 -0.0720  0.4274
24799SOL    HW275839   5.743   7.686   9.413 -0.2694  1.9240 -1.4571
24800SOL     OW75840   5.631   5.631   7.566 -0.2885  0.3714  0.3046
24800SOL    HW175841   5.673   5.717   7.569  0.8915 -0.1857  0.1381
24800SOL    HW275842   5.540   5.649   7.589  0.0565  1.5859  0.8229
24801SOL     OW75843   1.303   5.272   9.052 -0.4214  0.0746  0.3969
24801SOL    HW175844   1.230   5.246   8.996  0.2343  0.0298 -0.4660
24801SOL    HW275845   1.366   5.201   9.043 -0.6592 -0.3641  1.9102
24802SOL     OW75846   1.685   1.321  11.186 -0.0931  0.1736  0.4427
24802SOL    HW175847   1.764   1.302  11.135 -0.9949 -0.2465 -0.8241
24802SOL    HW275848   1.697   1.412  11.216  0.3136  0.5367 -0.7882
24803SOL     OW75849   5.195   1.453   1.395  0.4080 -0.2616  0.0916
24803SOL    HW175850   5.183   1.360   1.413  0.9089 -0.4530 -0.5197
24803SOL    HW275851   5.133   1.497   1.452 -0.5940 -1.0241 -0.3871
24804SOL     OW75852   5.282   7.404   1.427 -0.4581  0.1849  0.8186
24804SOL    HW175853   5.282   7.500   1.418 -0.7030  0.0235 -2.3738
24804SOL    HW275854   5.375   7.380   1.422 -0.5068  0.1855 -2.0074
24805SOL     OW75855   6.816   0.385   7.015  0.3564 -0.2551  0.8358
24805SOL    HW175856   6.819   0.344   6.929 -0.6635  1.3740 -0.0027
24805SOL    HW275857   6.881   0.336   7.066  0.6346 -1.5662 -0.6873
24806SOL     OW75858   7.813   1.676  10.005 -0.5139 -0.1431 -0.3792
24806SOL    HW175859   7.799   1.674   9.910 -0.0636 -1.2034 -0.4379
24806SOL    HW275860   7.790   1.588  10.034  0.2512 -0.1113  0.3527
24807SOL     OW75861   4.558   0.465   6.487  0.6197 -0.2187  0.2023
24807SOL    HW175862   4.526   0.524   6.555  0.1832 -0.5593  0.3003
24807SOL    HW275863   4.522   0.379   6.511  0.7698 -0.4121 -0.2530
24808SOL     OW75864   3.640   7.379  11.937 -0.4129  0.0438 -0.4807
24808SOL    HW175865   3.648   7.474  11.944  1.3476 -0.1245  0.4316
24808SOL    HW275866   3.615   7.350  12.025 -1.8857 -0.3028 -0.9726
24809SOL     OW75867   3.481   2.656   8.690 -0.1085  0.3715  0.0272
24809SOL    HW175868   3.416   2.626   8.627  0.5681 -3.4822  0.9055
24809SOL    HW275869   3.432   2.670   8.771 -0.3810  1.4697 -0.3088
24810SOL     OW75870   4.450   4.713   9.585  0.0606  0.1685 -0.3926
24810SOL    HW175871   4.400   4.635   9.561 -1.1022  0.7944 -0.1009
24810SOL    HW275872   4.389   4.786   9.569  1.0514  0.9979 -0.4717
24811SOL     OW75873   4.273   1.485  10.796 -0.4173  0.4604  0.2406
24811SOL    HW175874   4.240   1.491  10.886 -0.7234 -1.7273  0.3409
24811SOL    HW275875   4.348   1.426  10.802  0.8653  1.9424 -0.6558
24812SOL     OW75876   2.694   1.174   0.926  0.3644  0.0453  0.4319
24812SOL    HW175877   2.617   1.138   0.971  0.9594 -0.3258  1.1709
24812SOL    HW275878   2.681   1.269   0.930 -0.3567 -0.0249  0.0004
24813SOL     OW75879   3.315   1.366   8.923 -0.6886  0.5831  0.5321
24813SOL    HW175880   3.301   1.308   8.998 -1.3843 -0.8817 -0.6708
24813SOL    HW275881   3.272   1.322   8.850  1.3695  1.1184 -1.1229
24814SOL     OW75882   2.585   7.175   0.645 -0.2530  0.5527 -0.0177
24814SOL    HW175883   2.530   7.096   0.636 -0.4857  0.5607  1.1727
24814SOL    HW275884   2.668   7.151   0.604 -0.3125 -0.3303  0.3513
24815SOL     OW75885   5.125   6.829   9.934 -0.3126  0.6454 -0.4083
24815SOL    HW175886   5.167   6.761   9.987  1.4597  2.0731  0.1194
24815SOL    HW275887   5.031   6.811   9.941 -0.0389 -0.1924  1.8654
24816SOL     OW75888   4.147   6.246   7.571 -0.3510  0.0436 -0.1813
24816SOL    HW175889   4.177   6.170   7.522  1.7413 -1.1965  2.7262
24816SOL    HW275890   4.072   6.214   7.622 -1.5770  0.9082 -1.3699
24817SOL     OW75891   0.166   4.904   6.524 -0.2354  0.0779 -0.0898
24817SOL    HW175892   0.080   4.887   6.485 -0.0858  0.4807 -0.5972
24817SOL    HW275893   0.161   4.993   6.557  0.0327  0.1548 -0.2488
24818SOL     OW75894   0.642   7.758  11.516  0.2363 -0.0074  0.0006
24818SOL    HW175895   0.629   7.750  11.422 -0.9110  2.4409 -0.1291
24818SOL    HW275896   0.718   7.815  11.525  0.2839 -0.1505  0.5431
24819SOL     OW75897   5.085   2.244   4.380  0.0854 -0.6132 -0.2470
24819SOL    HW175898   5.022   2.260   4.451 -0.3653 -2.2399 -0.2383
24819SOL    HW275899   5.066   2.312   4.316 -2.3500 -1.5767 -0.6534
24820SOL     OW75900   3.978   2.250   8.261  0.7663 -0.2153  0.5397
24820SOL    HW175901   4.036   2.284   8.329 -0.6088 -1.0434  2.1998
24820SOL    HW275902   3.890   2.267   8.294 -0.0299  1.3650 -2.0803
24821SOL     OW75903   7.347   6.375   4.277 -0.1790  0.0171 -0.0655
24821SOL    HW175904   7.337   6.358   4.371  0.9326 -2.3569 -0.2898
24821SOL    HW275905   7.428   6.425   4.270  0.2970 -0.6909  0.2064
24822SOL     OW75906   0.500   2.423   0.716 -0.1247 -0.1142 -0.3148
24822SOL    HW175907   0.419   2.447   0.761 -0.5994  0.4712 -1.4423
24822SOL    HW275908   0.558   2.393   0.786 -1.0311  0.2246  0.6122
24823SOL     OW75909   3.057   1.435   3.825 -0.6364  0.6462  0.1858
24823SOL    HW175910   3.103   1.361   3.785 -2.0890 -0.6485  0.7901
24823SOL    HW275911   2.975   1.441   3.776 -0.8523  1.3675  0.6306
24824SOL     OW75912   4.074   6.723   9.923  0.3829 -0.2040 -0.1940
24824SOL    HW175913   4.110   6.734  10.012  0.0433  1.2355 -0.2116
24824SOL    HW275914   3.992   6.772   9.925 -1.0701 -2.5114 -0.4940
24825SOL     OW75915   6.774   0.357  10.761  0.3200 -0.0116  0.3052
24825SOL    HW175916   6.716   0.433  10.754 -0.0219 -0.2679  0.3420
24825SOL    HW275917   6.823   0.358  10.679 -0.2275 -0.1902 -0.0306
24826SOL     OW75918   1.792   5.726  10.436 -0.0323 -0.3271 -0.0881
24826SOL    HW175919   1.833   5.677  10.366  1.0549  0.4493 -0.0259
24826SOL    HW275920   1.703   5.744  10.404  0.4062 -0.0780 -1.2221
24827SOL     OW75921   2.462   0.567  11.496  0.5599 -0.0550  0.1414
24827SOL    HW175922   2.517   0.644  11.479  0.2271 -0.1268 -1.4147
24827SOL    HW275923   2.454   0.524  11.410 -0.7108 -0.8531  0.6334
24828SOL     OW75924   1.715   5.319  11.704  0.0724  0.2563  0.0893
24828SOL    HW175925   1.693   5.307  11.612  0.7094 -1.0279  0.0794
24828SOL    HW275926   1.783   5.254  11.721 -0.4171  0.1058  1.6093
24829SOL     OW75927   5.557   2.228  12.360 -0.1380 -0.7290 -0.1756
24829SOL    HW175928   5.487   2.264  12.415  0.5591  0.6725 -0.1658
24829SOL    HW275929   5.554   2.281  12.281  1.3038 -0.2408  0.0709
24830SOL     OW75930   0.501   5.327   7.546 -0.8616 -0.3381 -0.0476
24830SOL    HW175931   0.522   5.336   7.639  1.1738  0.2475 -0.5208
24830SOL    HW275932   0.510   5.416   7.511  0.3859 -0.8749 -1.1698
24831SOL     OW75933   2.424   0.180   6.033 -0.4612  0.3641 -0.6506
24831SOL    HW175934   2.412   0.269   5.999 -0.6901  0.8034  0.5311
24831SOL    HW275935   2.486   0.190   6.104  0.6524 -0.6684 -1.4404
24832SOL     OW75936   7.854   0.561   1.104  0.2557 -0.0464 -0.2235
24832SOL    HW175937   7.937   0.590   1.067 -0.1085  0.7834 -0.4187
24832SOL    HW275938   7.795   0.556   1.028 -0.2681  0.8343  0.1126
24833SOL     OW75939   1.964   7.768   8.417  0.2511  0.2588  0.6867
24833SOL    HW175940   1.868   7.765   8.422  0.1932  1.9541  0.9256
24833SOL    HW275941   1.989   7.843   8.470  1.8539 -1.1825  2.0705
24834SOL     OW75942   7.186   0.478   1.539 -0.0851 -0.0119 -0.3691
24834SOL    HW175943   7.244   0.402   1.542  1.1064  0.8939  0.0884
24834SOL    HW275944   7.228   0.538   1.478 -0.3486  0.8081  0.2403
24835SOL     OW75945   2.945   0.425  10.825 -0.3675 -0.1058 -0.4170
24835SOL    HW175946   2.932   0.352  10.765 -0.5548 -0.2495 -0.2058
24835SOL    HW275947   2.857   0.446  10.857 -0.4147  0.7287 -1.0746
24836SOL     OW75948   2.298   3.338   0.346  0.5105 -0.5200 -0.8327
24836SOL    HW175949   2.244   3.383   0.411  1.8223  0.8159 -0.5940
24836SOL    HW275950   2.277   3.245   0.357 -1.5754 -0.0753 -0.6607
24837SOL     OW75951   2.673   6.166   6.601 -0.6657  0.0128  0.4824
24837SOL    HW175952   2.638   6.240   6.552 -0.3472 -0.9552 -1.3018
24837SOL    HW275953   2.600   6.103   6.604 -0.7605  0.1475  1.5119
24838SOL     OW75954   7.433   2.608   8.765 -0.7015 -1.3277 -0.0608
24838SOL    HW175955   7.343   2.639   8.751 -0.7846 -0.6370  1.8025
24838SOL    HW275956   7.474   2.676   8.818  1.2864 -1.1076 -1.7640
24839SOL     OW75957   3.412   7.202   0.226 -0.1309 -0.0609 -0.1095
24839SOL    HW175958   3.370   7.249   0.298 -0.1104 -0.3847  0.1142
24839SOL    HW275959   3.427   7.269   0.159  1.2740  0.5784  0.8044
24840SOL     OW75960   2.810   4.052   9.457  0.1038  0.0447  0.1476
24840SOL    HW175961   2.826   4.144   9.477 -0.2242 -0.1767  1.5011
24840SOL    HW275962   2.719   4.049   9.429 -0.3978 -0.0801  1.6917
24841SOL     OW75963   2.995   5.982   2.317  0.6395  0.3446 -0.2648
24841SOL    HW175964   3.004   5.911   2.253  1.6081 -0.1683  0.4206
24841SOL    HW275965   2.950   6.051   2.269 -0.9952 -0.9843 -0.7552
24842SOL     OW75966   2.841   7.358   0.695 -0.0148 -0.5231  0.7328
24842SOL    HW175967   2.869   7.268   0.711  0.7299 -0.5623 -0.5932
24842SOL    HW275968   2.889   7.410   0.759  1.3271 -0.8494  0.0283
24843SOL     OW75969   3.669   0.314  10.308  0.2006 -0.5925 -0.1660
24843SOL    HW175970   3.620   0.239  10.273 -0.1638  0.4300 -1.9208
24843SOL    HW275971   3.679   0.373  10.234 -1.1668  1.9984  1.5803
24844SOL     OW75972   2.904   5.083   0.499  0.6023 -0.1023 -0.2026
24844SOL    HW175973   2.813   5.054   0.491  0.8486 -0.9586 -0.0552
24844SOL    HW275974   2.950   5.034   0.430  1.3445 -1.4584  1.1805
24845SOL     OW75975   6.943   5.729   4.148 -0.5197  0.3875 -0.2860
24845SOL    HW175976   6.914   5.713   4.058 -0.8058 -0.1614 -0.1008
24845SOL    HW275977   7.020   5.673   4.158  0.2411  1.3417 -0.5621
24846SOL     OW75978   2.271   1.833   0.214  0.0284 -0.7579 -0.3187
24846SOL    HW175979   2.344   1.774   0.235  1.5300  0.7778 -1.0048
24846SOL    HW275980   2.232   1.795   0.135  0.2441 -1.4394 -0.1068
24847SOL     OW75981   5.746   3.537   7.757  0.4134  0.0214 -0.6007
24847SOL    HW175982   5.757   3.547   7.663  2.7894 -0.3159 -0.4109
24847SOL    HW275983   5.768   3.446   7.774  0.3736  0.1759  0.3171
24848SOL     OW75984   4.629   6.273  11.405 -0.2086 -0.4520 -0.0241
24848SOL    HW175985   4.651   6.348  11.350  2.8390 -1.9885 -1.0921
24848SOL    HW275986   4.628   6.199  11.345  0.5152 -1.7860  1.5482
24849SOL     OW75987   4.683   6.172  10.414 -0.1435  0.6919 -0.1525
24849SOL    HW175988   4.686   6.146  10.507  1.9908  1.9802  0.1972
24849SOL    HW275989   4.593   6.203  10.402 -0.6515 -0.0687  1.3003
24850SOL     OW75990   3.315   5.250   0.919 -0.2606 -0.1833 -0.1414
24850SOL    HW175991   3.347   5.170   0.961 -0.0938  0.2574  0.5865
24850SOL    HW275992   3.349   5.321   0.974  1.3139  0.4976 -1.8752
24851SOL     OW75993   2.892   1.360   8.193  0.0126  0.3454 -0.3017
24851SOL    HW175994   2.923   1.445   8.225  0.5514 -0.1708  0.5896
24851SOL    HW275995   2.911   1.361   8.099 -2.3980  2.2514 -0.8660
24852SOL     OW75996   7.836   1.351  12.058 -0.1474 -0.2808 -0.2111
24852SOL    HW175997   7.871   1.385  12.140 -0.9595  0.6582 -0.2326
24852SOL    HW275998   7.808   1.262  12.078  0.2480 -0.2803  0.3573
24853SOL     OW75999   5.951   2.245  11.875 -0.3502  0.1854  0.0276
24853SOL    HW176000   5.884   2.263  11.809 -1.6376  2.4612  1.7879
24853SOL    HW276001   5.903   2.204  11.947  0.7371 -0.8435  0.2055
24854SOL     OW76002   6.296   2.235   4.978  0.5754 -0.1557  0.3815
24854SOL    HW176003   6.261   2.197   4.897  1.1142  0.3386 -0.0844
24854SOL    HW276004   6.230   2.300   5.004  1.2535  0.9734 -0.6463
24855SOL     OW76005   0.184   7.184   7.514  1.0188 -0.2921 -0.2183
24855SOL    HW176006   0.256   7.220   7.565 -0.3641 -0.6288  2.1017
24855SOL    HW276007   0.160   7.254   7.453  2.7593  0.0924 -0.5311
24856SOL     OW76008   1.285   3.694   6.745  0.2767 -0.0314  0.5236
24856SOL    HW176009   1.204   3.704   6.695  0.6769  0.5371 -0.0301
24856SOL    HW276010   1.332   3.776   6.732  0.6972 -0.1376  1.2911
24857SOL     OW76011   0.425   4.111   1.309 -0.0450  0.2995 -0.0441
24857SOL    HW176012   0.374   4.177   1.261 -0.4801  0.1909  0.2670
24857SOL    HW276013   0.507   4.104   1.260 -0.4396  0.2693 -0.7124
24858SOL     OW76014   6.716   0.788   5.396  0.3012 -0.5304  0.1389
24858SOL    HW176015   6.684   0.750   5.314 -1.6754 -0.4910  0.8341
24858SOL    HW276016   6.731   0.880   5.376  1.0792 -0.7834 -0.4875
24859SOL     OW76017   3.000   0.521   2.670  0.0762 -0.2628 -0.2092
24859SOL    HW176018   3.043   0.591   2.720 -1.2510  0.5689 -0.1922
24859SOL    HW276019   2.952   0.471   2.735 -1.6097  0.7860 -0.5726
24860SOL     OW76020   7.100   6.515  10.521  0.0949  0.1306  0.0129
24860SOL    HW176021   7.095   6.540  10.428  1.1231  2.0170  0.4017
24860SOL    HW276022   7.074   6.423  10.523 -0.7274  0.2615 -2.0385
24861SOL     OW76023   4.082   3.469  12.271  0.2851  0.6735  0.6043
24861SOL    HW176024   4.070   3.522  12.192  0.9031  1.7207  1.1917
24861SOL    HW276025   3.998   3.424  12.282  0.2000  0.4754 -0.6556
24862SOL     OW76026   6.277   4.003  10.624 -0.0018  0.1086  0.1946
24862SOL    HW176027   6.259   3.909  10.634 -1.4900  0.2802 -0.5353
24862SOL    HW276028   6.283   4.016  10.529  1.1385  0.6129  0.3207
24863SOL     OW76029   0.437   3.055   0.537 -0.1790 -0.2219  0.0962
24863SOL    HW176030   0.428   2.964   0.567  0.2248 -0.3007 -0.0144
24863SOL    HW276031   0.493   3.096   0.603  1.3063 -0.5769 -0.8756
24864SOL     OW76032   6.980   5.114  11.872 -0.0255 -0.4870  0.6528
24864SOL    HW176033   6.953   5.199  11.839  0.3683 -0.1969  1.0626
24864SOL    HW276034   7.041   5.134  11.943 -1.1668 -1.0792  1.8548
24865SOL     OW76035   6.555   6.189  10.284  0.0729  0.7045 -0.7559
24865SOL    HW176036   6.600   6.194  10.199  1.2741  1.2905 -0.1087
24865SOL    HW276037   6.464   6.211  10.264  0.1908  0.1370 -2.0033
24866SOL     OW76038   1.200   6.995   4.488  0.2638  0.4619  0.2376
24866SOL    HW176039   1.247   7.028   4.412 -0.1233  1.4123  0.3930
24866SOL    HW276040   1.268   6.977   4.553  0.6733 -1.0878 -0.5643
24867SOL     OW76041   5.991   7.588   4.759  0.4508  0.0128 -0.0171
24867SOL    HW176042   6.041   7.533   4.699  0.4366 -1.5702  1.3496
24867SOL    HW276043   6.039   7.670   4.762  0.9142 -0.1770 -1.5307
24868SOL     OW76044   6.881   6.760  11.923  0.3023 -0.1402 -0.2282
24868SOL    HW176045   6.845   6.848  11.925  1.7801  0.4891 -0.1328
24868SOL    HW276046   6.805   6.704  11.907 -0.7267  1.0931  0.1281
24869SOL     OW76047   0.625   6.803   2.651 -0.1279 -0.0484 -0.1150
24869SOL    HW176048   0.699   6.807   2.590 -0.6326 -0.4659 -0.7591
24869SOL    HW276049   0.565   6.871   2.620 -0.8295 -0.9094 -0.6743
24870SOL     OW76050   7.108   5.249   0.657 -0.2711 -0.7521 -0.2349
24870SOL    HW176051   7.149   5.198   0.727 -0.5707 -0.2955  0.2719
24870SOL    HW276052   7.015   5.248   0.678 -0.1925  0.7643  0.2828
24871SOL     OW76053   4.212   7.238   6.850 -0.3258  0.4619 -0.2462
24871SOL    HW176054   4.247   7.219   6.937 -0.8615 -1.0660 -0.3294
24871SOL    HW276055   4.150   7.309   6.864  2.2829  2.8526 -0.0127
24872SOL     OW76056   3.155   6.828   2.097  0.1716 -0.4760  0.5466
24872SOL    HW176057   3.061   6.844   2.109  0.4882  1.8463  0.3265
24872SOL    HW276058   3.187   6.809   2.185 -0.0050  1.9965  1.2332
24873SOL     OW76059   5.958   6.819   6.142 -0.1453  0.3428  0.4845
24873SOL    HW176060   5.881   6.874   6.156 -0.4140 -0.3657  1.8855
24873SOL    HW276061   6.019   6.875   6.093 -2.1300  0.4089 -2.1104
24874SOL     OW76062   3.234   3.998   1.596  0.2265 -0.9975  0.3517
24874SOL    HW176063   3.291   4.020   1.523  0.4745 -0.6160  0.6593
24874SOL    HW276064   3.291   4.000   1.673 -0.1119 -1.0180  0.6072
24875SOL     OW76065   1.786   7.584   7.312 -0.5306  0.5830  0.1131
24875SOL    HW176066   1.878   7.591   7.335 -0.3057  0.4010 -0.6799
24875SOL    HW276067   1.780   7.502   7.262 -1.2665  0.1931  0.8219
24876SOL     OW76068   7.112   0.395   1.225 -0.4429  0.2896 -0.0563
24876SOL    HW176069   7.081   0.476   1.266 -1.2069  0.0560 -0.1679
24876SOL    HW276070   7.203   0.388   1.253 -0.3410  1.2309 -0.1130
24877SOL     OW76071   4.693   6.377   6.450  0.3074 -0.0394 -0.3860
24877SOL    HW176072   4.722   6.286   6.456 -0.1136 -0.1446  0.0571
24877SOL    HW276073   4.628   6.378   6.380  0.3651 -0.0655 -0.4399
24878SOL     OW76074   1.428   3.303   3.759 -0.2516 -0.2557 -0.2030
24878SOL    HW176075   1.506   3.325   3.809 -1.1196  0.3661  0.9254
24878SOL    HW276076   1.426   3.207   3.757  0.2927 -0.2747  0.1318
24879SOL     OW76077   5.502   2.723   9.979 -0.4399 -0.0566 -0.0573
24879SOL    HW176078   5.555   2.658   9.932 -1.1391 -0.9501  0.3502
24879SOL    HW276079   5.467   2.780   9.911 -1.2293 -1.1756 -0.6219
24880SOL     OW76080   2.378   4.600   8.938  0.3886  0.1837  0.0660
24880SOL    HW176081   2.451   4.544   8.911  1.1551 -0.1027  2.4565
24880SOL    HW276082   2.416   4.657   9.006 -1.2602  1.0461  0.3051
24881SOL     OW76083   7.197   7.526   9.839  0.2154 -0.3034 -0.1597
24881SOL    HW176084   7.187   7.545   9.932 -0.1165  1.9262 -0.5919
24881SOL    HW276085   7.257   7.593   9.807  0.0427 -0.8096 -1.6322
24882SOL     OW76086   6.577   1.023   6.074  0.2039  0.9407  0.4623
24882SOL    HW176087   6.503   0.975   6.111  1.8770 -1.3089  1.1088
24882SOL    HW276088   6.597   1.090   6.140 -0.5445  0.8308  0.8114
24883SOL     OW76089   0.230   7.885  11.850  0.2963 -0.5401 -0.2456
24883SOL    HW176090   0.181   7.813  11.811 -0.2727  0.1408 -0.8179
24883SOL    HW276091   0.322   7.857  11.844  0.0777 -1.2480 -0.3754
24884SOL     OW76092   2.217   0.675   1.638  0.1057 -0.0294 -0.5009
24884SOL    HW176093   2.184   0.762   1.661  0.6227  0.2676 -0.8609
24884SOL    HW276094   2.225   0.630   1.722 -3.3162 -0.9169 -0.5018
24885SOL     OW76095   0.076   1.853   7.405 -0.9085 -0.8905  0.3215
24885SOL    HW176096   0.103   1.824   7.318 -0.7777  1.1920 -0.3912
24885SOL    HW276097   0.156   1.851   7.457  0.0218  1.8447 -0.8161
24886SOL     OW76098   1.553   5.552  11.748 -0.3998  0.3433  0.1815
24886SOL    HW176099   1.608   5.474  11.743 -0.7365  0.1557 -0.8874
24886SOL    HW276100   1.612   5.625  11.731 -0.2124  0.2793  0.5320
24887SOL     OW76101   4.711   5.528  10.692 -0.1010  0.0618  0.0624
24887SOL    HW176102   4.734   5.437  10.673 -2.3479 -0.7302  0.8344
24887SOL    HW276103   4.730   5.575  10.611 -1.3774 -1.6288 -1.2977
24888SOL     OW76104   5.944   4.974   9.031  0.5682 -0.2241  0.1888
24888SOL    HW176105   5.904   4.921   8.963  1.1105 -1.6192  0.9015
24888SOL    HW276106   5.890   5.053   9.036 -0.6118 -0.9653 -0.5140
24889SOL     OW76107   3.311   5.313   0.187 -0.0503  0.2908 -0.3926
24889SOL    HW176108   3.250   5.280   0.121 -0.0311  0.3838 -0.4566
24889SOL    HW276109   3.262   5.309   0.269 -0.2320  0.6036 -0.4834
24890SOL     OW76110   3.345   5.809   8.853  0.4392 -0.4416  0.0620
24890SOL    HW176111   3.273   5.817   8.916  0.1764  2.2016 -0.4600
24890SOL    HW276112   3.305   5.827   8.768  1.4070 -0.5949 -0.4427
24891SOL     OW76113   7.127   0.385  11.983 -1.0959 -0.1659 -0.0240
24891SOL    HW176114   7.088   0.440  11.914  1.0132  0.1259 -1.0928
24891SOL    HW276115   7.123   0.296  11.948  2.0178  0.2163 -1.7274
24892SOL     OW76116   1.801   4.669   5.469  0.2239  0.3796 -0.0505
24892SOL    HW176117   1.880   4.723   5.471  0.4963 -0.0308  0.3057
24892SOL    HW276118   1.833   4.579   5.476 -0.3217  0.2517  0.9680
24893SOL     OW76119   4.337   1.111  11.566  0.1231  0.1212 -0.2302
24893SOL    HW176120   4.381   1.030  11.540  1.0100  0.6252 -0.3391
24893SOL    HW276121   4.408   1.169  11.592 -0.6220  0.2539  1.6010
24894SOL     OW76122   4.727   3.833   5.323 -0.4273 -0.2630  0.1443
24894SOL    HW176123   4.716   3.760   5.262  0.9399 -0.7619  0.4540
24894SOL    HW276124   4.761   3.904   5.269 -0.6031 -0.2439  0.0596
24895SOL     OW76125   2.990   7.535   1.577 -0.0721 -0.0967  0.5515
24895SOL    HW176126   3.020   7.527   1.486 -0.5298 -0.1265  0.4004
24895SOL    HW276127   2.966   7.627   1.587 -2.4532 -0.5540 -0.1526
24896SOL     OW76128   4.231   5.094   2.388 -0.5484 -0.2443 -0.0084
24896SOL    HW176129   4.143   5.057   2.383 -0.5531 -0.2891  0.4108
24896SOL    HW276130   4.217   5.187   2.404 -0.5057 -0.4287  1.1189
24897SOL     OW76131   3.037   0.913   5.939 -0.2292  0.5343  0.1081
24897SOL    HW176132   2.958   0.860   5.929 -0.2775  0.5822  0.2285
24897SOL    HW276133   3.094   0.886   5.868  0.2419 -0.5307  0.8697
24898SOL     OW76134   4.846   0.198   6.264  0.6126  0.2624  0.0421
24898SOL    HW176135   4.824   0.288   6.289  1.9686  0.2729  1.3396
24898SOL    HW276136   4.816   0.191   6.173 -0.6416  1.6123  0.3053
24899SOL     OW76137   4.643   1.569   5.716 -0.0255 -0.3382 -0.1041
24899SOL    HW176138   4.630   1.526   5.800 -1.6670  1.7254  0.7835
24899SOL    HW276139   4.558   1.559   5.671  0.5372 -0.6176 -1.1416
24900SOL     OW76140   4.087   3.935   5.734 -0.0382 -0.1063  0.1814
24900SOL    HW176141   4.161   3.874   5.733 -0.3646 -0.5104 -1.1211
24900SOL    HW276142   4.026   3.896   5.797  0.9307  0.3455  1.4246
24901SOL     OW76143   6.120   2.766   3.162  0.4355 -0.4409 -0.0920
24901SOL    HW176144   6.215   2.774   3.151  0.3820  1.6455  0.5257
24901SOL    HW276145   6.097   2.688   3.113  2.8308 -2.6948  2.0787
24902SOL     OW76146   6.711   5.199   4.063  0.0207 -0.1330 -0.0320
24902SOL    HW176147   6.747   5.118   4.100 -1.4755 -2.1366 -2.5560
24902SOL    HW276148   6.617   5.193   4.080 -0.2806  0.3646 -1.3870
24903SOL     OW76149   4.820   3.254   8.056 -0.5827  0.0988  0.4022
24903SOL    HW176150   4.852   3.171   8.092 -1.6504 -1.7182 -2.4904
24903SOL    HW276151   4.750   3.280   8.116 -0.1025 -0.9836  1.4836
24904SOL     OW76152   4.532   4.448   1.858 -0.4184  0.4697  0.4114
24904SOL    HW176153   4.621   4.457   1.822 -0.0729 -1.4885  0.6779
24904SOL    HW276154   4.529   4.510   1.930  0.1460  1.7611 -0.6276
24905SOL     OW76155   4.085   5.920   7.096  0.1637 -0.3217  0.0409
24905SOL    HW176156   4.008   5.970   7.124  1.3595  1.5170  0.1904
24905SOL    HW276157   4.113   5.874   7.175  0.0150  0.0780  0.3301
24906SOL     OW76158   4.957   7.117   0.525  0.1001 -0.8037 -0.0705
24906SOL    HW176159   4.894   7.177   0.566  1.5731  0.5138  0.3554
24906SOL    HW276160   4.924   7.030   0.545 -1.1013 -0.1499  0.9128
24907SOL     OW76161   6.772   6.075   5.564 -0.2678 -0.4839 -0.2859
24907SOL    HW176162   6.812   6.049   5.647 -1.0935 -2.1677 -0.3686
24907SOL    HW276163   6.845   6.082   5.503  0.2350 -0.2232  0.3356
24908SOL     OW76164   5.892   0.329  12.105  0.2600  0.6521  0.1134
24908SOL    HW176165   5.817   0.289  12.062  0.9839  0.4468 -0.9948
24908SOL    HW276166   5.924   0.262  12.165 -1.5447  1.3962  2.0439
24909SOL     OW76167   6.521   4.287   8.649  0.3560 -0.7463 -0.0589
24909SOL    HW176168   6.448   4.226   8.641  0.0947 -0.1963 -2.5155
24909SOL    HW276169   6.504   4.354   8.584  3.3940 -0.9614 -1.2265
24910SOL     OW76170   3.101   0.087   8.307 -0.2752 -0.2355  0.1302
24910SOL    HW176171   3.008   0.106   8.321 -0.4143  0.1655 -1.2248
24910SOL    HW276172   3.112   0.088   8.212  0.8483 -1.6011  0.2041
24911SOL     OW76173   7.611   6.092   2.928  0.2090  0.0289  0.1468
24911SOL    HW176174   7.549   6.052   2.988  0.9304 -0.0425  0.8652
24911SOL    HW276175   7.599   6.044   2.846 -1.4586  0.7652 -0.0782
24912SOL     OW76176   0.412   2.264   0.387 -0.2585  0.5644  0.0058
24912SOL    HW176177   0.397   2.248   0.294 -0.9364  1.1299  0.0136
24912SOL    HW276178   0.359   2.198   0.432 -0.7571  0.9554 -0.0003
24913SOL     OW76179   0.451   4.282   7.895 -0.3431 -0.0392  0.5645
24913SOL    HW176180   0.499   4.212   7.939 -0.5056 -0.1253  0.6090
24913SOL    HW276181   0.366   4.283   7.940 -0.3478  0.1714  0.5491
24914SOL     OW76182   6.761   2.160   8.428  0.7482 -0.7221  0.0640
24914SOL    HW176183   6.782   2.066   8.432 -0.5566 -1.0355  0.1393
24914SOL    HW276184   6.802   2.190   8.348  1.0709 -1.4002 -0.0334
24915SOL     OW76185   4.666   1.917   0.485  0.4798  0.1340 -0.7661
24915SOL    HW176186   4.738   1.920   0.421 -0.2202  0.1116 -1.5706
24915SOL    HW276187   4.593   1.880   0.437 -0.7273  2.1864 -0.6105
24916SOL     OW76188   5.582   0.301   6.958  0.0133  0.7728  0.9202
24916SOL    HW176189   5.498   0.263   6.982 -0.0261  1.5906  2.1604
24916SOL    HW276190   5.592   0.376   7.016  0.5383  2.0871 -0.7768
24917SOL     OW76191   0.643   5.271  11.808 -0.0918  0.3934  0.3200
24917SOL    HW176192   0.730   5.295  11.778  0.1279  0.9476  1.3768
24917SOL    HW276193   0.591   5.266  11.728  0.7602  0.6470 -0.2600
24918SOL     OW76194   4.253   0.316   2.742 -0.3775 -0.0250  0.7686
24918SOL    HW176195   4.266   0.376   2.669 -0.0289  0.3682  1.1466
24918SOL    HW276196   4.294   0.360   2.817 -0.0423 -0.7649  1.0340
24919SOL     OW76197   4.084   5.951   3.779 -0.1990 -0.5435  0.5443
24919SOL    HW176198   4.074   6.045   3.795 -2.9618 -0.9281  1.6761
24919SOL    HW276199   4.027   5.934   3.704  0.6817 -1.2659  0.0259
24920SOL     OW76200   3.799   7.420   4.616 -0.3244  0.7550 -0.4363
24920SOL    HW176201   3.721   7.366   4.620 -0.3614  0.8754  0.6563
24920SOL    HW276202   3.860   7.370   4.562 -0.9588  0.4172 -0.8471
24921SOL     OW76203   3.255   1.249   2.738 -0.0359  0.3251  0.0575
24921SOL    HW176204   3.239   1.201   2.657 -0.0809  1.0531 -0.3732
24921SOL    HW276205   3.277   1.181   2.802  2.0519 -0.0989 -1.0392
24922SOL     OW76206   6.976   7.646   8.925  0.3066 -0.2635  0.2961
24922SOL    HW176207   6.991   7.738   8.904 -0.7965  0.3571  1.9713
24922SOL    HW276208   7.046   7.623   8.987  1.6255 -1.1233 -1.4188
24923SOL     OW76209   3.721   1.848   8.921 -0.2166 -0.0785 -0.4097
24923SOL    HW176210   3.707   1.908   8.847  0.9434  1.1073  0.2991
24923SOL    HW276211   3.782   1.782   8.887 -1.8142 -1.1755 -1.3181
24924SOL     OW76212   2.621   5.408   0.545  0.4274  0.3665  0.0264
24924SOL    HW176213   2.561   5.474   0.512  0.0420  0.9480  1.7789
24924SOL    HW276214   2.681   5.391   0.472 -1.4145  0.2656 -1.5352
24925SOL     OW76215   5.539   5.232   6.383  0.0238  0.1158  0.0100
24925SOL    HW176216   5.561   5.316   6.424  0.6925 -0.0782  0.0729
24925SOL    HW276217   5.616   5.177   6.401  0.6940  0.2558 -2.1576
24926SOL     OW76218   4.232   3.228   9.939 -0.2615  0.0566 -0.1580
24926SOL    HW176219   4.306   3.276   9.976  0.1596 -0.7929  0.1444
24926SOL    HW276220   4.172   3.295   9.906 -0.2123  0.8102  1.2451
24927SOL     OW76221   1.257   0.946   4.008 -0.1483 -0.4728  0.5745
24927SOL    HW176222   1.254   1.030   3.962 -3.9348 -1.5880 -1.6433
24927SOL    HW276223   1.307   0.889   3.950 -1.2827 -0.7854 -0.1303
24928SOL     OW76224   3.556   5.861  12.330 -0.2347 -0.2871  0.8526
24928SOL    HW176225   3.624   5.896  12.272 -0.2276 -0.1332  0.9527
24928SOL    HW276226   3.583   5.771  12.347  0.3250 -0.0118  1.4661
24929SOL     OW76227   1.417   6.872  10.116  0.3076 -0.3368  0.2274
24929SOL    HW176228   1.410   6.964  10.139  1.1530 -0.0244 -0.7098
24929SOL    HW276229   1.338   6.853  10.066  0.2147 -0.0790  0.2766
24930SOL     OW76230   4.712   5.055  11.579  0.5348 -0.3570  0.3882
24930SOL    HW176231   4.698   5.101  11.497  2.0570 -0.4804  0.0261
24930SOL    HW276232   4.773   4.985  11.557 -1.4158 -2.3762  0.9939
24931SOL     OW76233   6.205   0.216   9.641 -0.1525  0.1923  0.7893
24931SOL    HW176234   6.131   0.271   9.614  1.7124  2.0014 -1.0739
24931SOL    HW276235   6.253   0.269   9.705  0.0348 -0.5658  1.2901
24932SOL     OW76236   3.494   7.146   6.964 -0.6696 -0.3483  1.2556
24932SOL    HW176237   3.577   7.124   7.007 -0.6856 -1.1064  0.9252
24932SOL    HW276238   3.497   7.096   6.882 -1.6971 -0.8345  1.5031
24933SOL     OW76239   5.074   6.928   3.323  0.7373 -0.1726  0.8640
24933SOL    HW176240   5.161   6.896   3.346  0.2640 -0.5839  2.1079
24933SOL    HW276241   5.065   7.011   3.370  0.8108  0.3531 -0.0172
24934SOL     OW76242   0.317   1.131   2.798 -0.8629 -0.4627 -0.0945
24934SOL    HW176243   0.349   1.094   2.716  0.2501  0.9447 -0.3255
24934SOL    HW276244   0.366   1.085   2.867  1.2807  1.2107 -0.4184
24935SOL     OW76245   6.024   4.522   2.281 -0.8941 -0.0059 -0.0171
24935SOL    HW176246   6.065   4.472   2.352 -2.9535 -0.3819  0.9781
24935SOL    HW276247   6.064   4.487   2.201 -1.4755 -2.5172  0.7044
24936SOL     OW76248   6.831   0.131   1.952  0.0416 -0.3977 -0.3278
24936SOL    HW176249   6.752   0.112   1.902  0.0048 -2.9870  0.5350
24936SOL    HW276250   6.884   0.051   1.944  2.4990  1.1698 -0.6805
24937SOL     OW76251   0.625   3.802  10.825 -0.1049 -0.2626  0.0996
24937SOL    HW176252   0.567   3.812  10.900 -0.0565  1.1796 -0.0220
24937SOL    HW276253   0.587   3.859  10.758  0.0471 -1.2648 -0.8610
24938SOL     OW76254   4.618   1.810  10.478 -0.1583  0.1397  0.4443
24938SOL    HW176255   4.692   1.836  10.423 -0.5652  1.2634  0.4074
24938SOL    HW276256   4.622   1.870  10.553 -0.7728 -0.0826  0.6591
24939SOL     OW76257   5.452   5.431   2.809  0.0542  0.0662 -0.1936
24939SOL    HW176258   5.529   5.381   2.785 -0.3013  0.1079 -1.4882
24939SOL    HW276259   5.427   5.477   2.729 -1.9300 -0.7809 -0.1306
24940SOL     OW76260   7.052   6.602   8.468 -0.8180 -0.1985  0.3719
24940SOL    HW176261   7.010   6.516   8.475 -0.9434 -0.1573  0.1245
24940SOL    HW276262   6.984   6.665   8.492 -1.1696 -0.0748 -0.9086
24941SOL     OW76263   5.854   3.784   9.267  0.0170 -0.3579  0.0141
24941SOL    HW176264   5.898   3.716   9.216 -1.0807 -0.1572 -1.2502
24941SOL    HW276265   5.773   3.801   9.220 -0.4572  0.7421  1.1624
24942SOL     OW76266   7.375   5.469   7.774 -0.5748 -0.3704 -0.5425
24942SOL    HW176267   7.351   5.438   7.686  0.3218 -1.0202 -0.5771
24942SOL    HW276268   7.298   5.451   7.827 -0.1445 -2.7023 -0.5724
24943SOL     OW76269   6.032   7.584   8.281  0.1010  0.2573  0.4453
24943SOL    HW176270   5.937   7.592   8.271  0.0284 -0.5345  0.4403
24943SOL    HW276271   6.051   7.494   8.257  0.6208 -0.1358  2.2054
24944SOL     OW76272   7.291   7.919   6.572 -0.1833 -0.0584  0.1074
24944SOL    HW176273   7.384   7.922   6.592  0.0333  0.2000 -0.8997
24944SOL    HW276274   7.286   7.893   6.480 -1.0726  0.6221 -0.0588
24945SOL     OW76275   0.454   6.282  11.736 -0.1056 -0.2562  0.3465
24945SOL    HW176276   0.433   6.219  11.667 -1.5832  2.9100 -2.3667
24945SOL    HW276277   0.548   6.297  11.728  0.2346 -1.8672  0.9184
24946SOL     OW76278   5.425   0.212   0.766  0.3544  0.4193  0.1091
24946SOL    HW176279   5.359   0.185   0.702 -0.6488  1.9074  0.4496
24946SOL    HW276280   5.506   0.218   0.717 -0.5281  2.2456 -1.2335
24947SOL     OW76281   5.485   6.516   6.339  0.9328 -0.1950 -0.0343
24947SOL    HW176282   5.545   6.441   6.347  2.5924  1.1543  0.9180
24947SOL    HW276283   5.523   6.569   6.269 -0.8040 -0.6813 -1.4083
24948SOL     OW76284   0.040   7.687   4.593  0.0152  0.4856 -0.1453
24948SOL    HW176285   0.123   7.682   4.640 -0.2070  2.2433  0.5066
24948SOL    HW276286   0.052   7.759   4.531 -0.3223 -0.6301 -1.5365
24949SOL     OW76287   0.174   2.590   7.760  0.7401  0.4122  0.0414
24949SOL    HW176288   0.240   2.648   7.721  1.3504  0.9080  1.7423
24949SOL    HW276289   0.223   2.515   7.792  0.5325  0.8126  1.3757
24950SOL     OW76290   3.068   5.262   9.151 -0.2958 -0.4918 -0.0131
24950SOL    HW176291   3.013   5.332   9.117 -0.7950 -0.1910  1.3310
24950SOL    HW276292   3.137   5.307   9.200  0.4173 -0.9040 -0.6086
24951SOL     OW76293   4.331   2.496   9.264 -0.4338  0.1606 -0.6239
24951SOL    HW176294   4.372   2.460   9.342 -2.2513  0.0284  0.3283
24951SOL    HW276295   4.384   2.463   9.192  0.9918 -0.1341  0.5073
24952SOL     OW76296   7.258   6.219  11.684 -0.4427  0.0780 -0.1292
24952SOL    HW176297   7.270   6.301  11.635  1.3275  0.5895  1.0399
24952SOL    HW276298   7.347   6.183  11.692 -0.8707 -0.7249  1.4193
24953SOL     OW76299   4.179   2.785  11.612 -0.3829  0.2350  0.4626
24953SOL    HW176300   4.152   2.819  11.697 -1.5710  0.4103  0.0416
24953SOL    HW276301   4.096   2.769  11.566  0.2344 -0.1964 -0.5260
24954SOL     OW76302   2.889   1.300   5.973 -0.0728 -0.1653  0.3759
24954SOL    HW176303   2.845   1.371   6.019  0.8457  0.8885 -0.3171
24954SOL    HW276304   2.857   1.306   5.883 -1.7303 -2.0993  0.7660
24955SOL     OW76305   4.337   3.119   9.359 -0.6002  0.2272  0.2469
24955SOL    HW176306   4.272   3.162   9.304 -0.2227  1.7340  0.9200
24955SOL    HW276307   4.319   3.153   9.447  1.8579  1.7338  0.2741
24956SOL     OW76308   0.133   0.790  10.302  0.0831 -0.0779  0.3335
24956SOL    HW176309   0.066   0.805  10.236 -0.1552  1.6998  0.9258
24956SOL    HW276310   0.127   0.696  10.322 -0.7852 -0.3558 -1.1243
24957SOL     OW76311   0.609   4.150   6.307 -0.6879  0.5783 -0.0702
24957SOL    HW176312   0.540   4.190   6.255 -1.0708  0.5016  0.3717
24957SOL    HW276313   0.575   4.063   6.328 -0.5431  0.6134  0.3161
24958SOL     OW76314   6.117   5.219  10.523  0.3626 -0.2895 -0.2563
24958SOL    HW176315   6.096   5.200  10.615 -0.8259 -3.3146 -1.0633
24958SOL    HW276316   6.211   5.238  10.525  0.4888 -0.8514  1.5000
24959SOL     OW76317   5.910   7.899  10.333  0.1521 -0.4955 -0.3162
24959SOL    HW176318   5.965   7.974  10.354  1.4060 -0.9644 -1.8058
24959SOL    HW276319   5.820   7.932  10.340  0.6753  1.6050 -2.4465
24960SOL     OW76320   2.455   7.343   5.023 -0.5382  0.3116 -0.0901
24960SOL    HW176321   2.403   7.356   4.944 -2.5401 -2.6314  0.5623
24960SOL    HW276322   2.541   7.318   4.992 -1.2812 -0.7383 -1.3937
24961SOL     OW76323   4.920   5.634  10.239 -0.4464  0.2888 -0.7922
24961SOL    HW176324   4.915   5.701  10.170 -3.2037 -0.1766 -1.1813
24961SOL    HW276325   4.886   5.555  10.197  1.3913 -1.0078  0.0762
24962SOL     OW76326   6.435   0.041   9.519  0.2862  0.1132  0.2007
24962SOL    HW176327   6.343   0.063   9.534 -0.1004 -1.1338 -0.1809
24962SOL    HW276328   6.445   0.043   9.424  0.2059 -1.3236  0.1325
24963SOL     OW76329   3.151   5.962   0.513  0.2337 -0.7551 -0.5524
24963SOL    HW176330   3.231   6.014   0.511  0.9881 -1.9161 -1.9255
24963SOL    HW276331   3.085   6.019   0.473  0.2914  0.2819  0.7644
24964SOL     OW76332   5.744   5.068  10.921  0.4024 -0.9848  0.0336
24964SOL    HW176333   5.696   5.058  10.839 -0.8996 -1.1727  0.7946
24964SOL    HW276334   5.751   4.980  10.956  0.2753 -0.8105  0.5004
24965SOL     OW76335   3.029   2.712  12.127 -0.2325  0.2107  0.0378
24965SOL    HW176336   3.019   2.803  12.155  2.1874  0.8744 -1.0282
24965SOL    HW276337   3.064   2.717  12.038  1.4299 -1.7306  0.5037
24966SOL     OW76338   5.954   5.331   7.452 -0.2345  0.2839 -0.0752
24966SOL    HW176339   5.997   5.284   7.381 -0.2080  0.6851 -0.3298
24966SOL    HW276340   6.026   5.362   7.507 -0.3037 -1.6228  1.1904
24967SOL     OW76341   1.637   6.431   8.758 -0.2072 -0.3457  0.6448
24967SOL    HW176342   1.572   6.488   8.716  1.2735  1.0773  0.1451
24967SOL    HW276343   1.620   6.344   8.722 -1.5686  0.0620  0.2413
24968SOL     OW76344   2.452   1.867   9.354 -0.8783  0.0059  0.2292
24968SOL    HW176345   2.393   1.852   9.280 -0.2319 -0.7665 -0.1503
24968SOL    HW276346   2.455   1.963   9.363  1.3318  0.3651 -2.7131
24969SOL     OW76347   0.065   6.033   3.237 -0.4213 -0.1048  0.1511
24969SOL    HW176348   0.037   6.122   3.257 -0.9891 -0.1845 -0.2454
24969SOL    HW276349  -0.016   5.982   3.240 -0.7818  0.0162 -3.1668
24970SOL     OW76350   0.567   1.995   6.511 -0.1984 -0.1371 -0.2202
24970SOL    HW176351   0.505   1.931   6.477 -0.0162 -0.6226  0.3509
24970SOL    HW276352   0.646   1.980   6.459 -0.8923  1.2564 -1.7429
24971SOL     OW76353   5.407   5.317   3.090 -0.2844  0.5120  0.6375
24971SOL    HW176354   5.400   5.285   3.000 -0.5640  1.2209  0.4008
24971SOL    HW276355   5.500   5.306   3.112  0.0643  1.5523 -0.2170
24972SOL     OW76356   6.523   4.241   3.368  0.0354  0.2725  0.1344
24972SOL    HW176357   6.588   4.304   3.339  0.3701 -0.0334  0.2113
24972SOL    HW276358   6.504   4.266   3.459  0.5511 -0.0469  0.3353
24973SOL     OW76359   5.834   3.225   4.382 -0.2374  0.3922  0.3645
24973SOL    HW176360   5.820   3.145   4.330 -0.3522  1.0627 -0.6679
24973SOL    HW276361   5.771   3.218   4.453 -1.4041  0.3302 -0.6373
24974SOL     OW76362   7.799   5.034  11.483  0.3226 -0.1470  0.6376
24974SOL    HW176363   7.776   5.126  11.466  0.3548 -0.1738  0.4544
24974SOL    HW276364   7.716   4.987  11.475  0.1788 -0.0401  1.3973
24975SOL     OW76365   5.717   7.234   9.979 -0.1404  0.6190 -0.0562
24975SOL    HW176366   5.730   7.153   9.929 -1.5883  0.6857 -0.5734
24975SOL    HW276367   5.765   7.219  10.060  1.0378 -0.0769 -0.8464
24976SOL     OW76368   0.365   5.408   6.470 -0.1736  0.3185  0.2108
24976SOL    HW176369   0.434   5.456   6.424  0.9003  0.1790  1.6078
24976SOL    HW276370   0.288   5.418   6.415  0.8005  1.0384 -1.0693
24977SOL     OW76371   6.090   2.224  10.119 -0.1729 -0.1555  0.4069
24977SOL    HW176372   6.150   2.233  10.193  0.1635 -1.0401  0.2649
24977SOL    HW276373   6.138   2.259  10.044  0.4336 -1.4209  0.1774
24978SOL     OW76374   1.333   2.882  11.901  0.1223  0.4332  0.4644
24978SOL    HW176375   1.400   2.947  11.923  0.7540 -0.6802  2.0279
24978SOL    HW276376   1.366   2.839  11.822  0.1232  1.3803 -0.0739
24979SOL     OW76377   7.863   6.781   4.128 -0.0360  0.3561  0.0556
24979SOL    HW176378   7.805   6.710   4.103 -2.1592  2.1642 -0.4094
24979SOL    HW276379   7.865   6.778   4.224 -1.0816  0.4033  0.0817
24980SOL     OW76380   5.014   4.198   9.859  0.0597 -0.0288  0.0784
24980SOL    HW176381   5.062   4.160   9.933 -0.8975 -0.7649  0.3425
24980SOL    HW276382   5.080   4.247   9.810  0.6935  0.5266  1.4511
24981SOL     OW76383   4.535   3.868  12.370 -0.3515 -0.1582  0.2040
24981SOL    HW176384   4.603   3.822  12.419 -1.7459 -2.7099 -0.1204
24981SOL    HW276385   4.455   3.818  12.386 -1.3751  0.3949 -2.6325
24982SOL     OW76386   0.913   4.030   5.964 -0.1883  0.0940 -0.4272
24982SOL    HW176387   0.991   4.033   5.908 -1.1133  0.0898 -1.7776
24982SOL    HW276388   0.907   4.118   6.002 -0.3054  0.5588 -1.4666
24983SOL     OW76389   4.821   3.141   4.209  0.7364  0.3899 -0.0507
24983SOL    HW176390   4.782   3.080   4.272  0.3530 -1.3114 -1.8082
24983SOL    HW276391   4.788   3.227   4.235  0.0321 -0.3381  1.6232
24984SOL     OW76392   1.869   6.374  11.879 -0.0692 -0.2662 -0.3942
24984SOL    HW176393   1.833   6.390  11.792 -1.3243 -3.2754 -0.5314
24984SOL    HW276394   1.867   6.279  11.889  2.5412 -0.1868  1.9146
24985SOL     OW76395   4.792   4.062   8.242 -0.6866  0.5600  0.4045
24985SOL    HW176396   4.864   4.049   8.304  0.8630 -1.5865 -1.6959
24985SOL    HW276397   4.815   4.141   8.194 -0.3763  0.5618  0.5589
24986SOL     OW76398   3.653   2.726   1.479 -0.5686  0.0081 -0.0700
24986SOL    HW176399   3.713   2.704   1.407  1.3721  1.7094  0.9527
24986SOL    HW276400   3.598   2.796   1.443 -1.1302 -0.6731 -0.5838
24987SOL     OW76401   2.270   6.010   4.434 -0.3639 -0.6117  0.0387
24987SOL    HW176402   2.344   6.061   4.400 -0.5175 -1.0672 -1.0017
24987SOL    HW276403   2.197   6.032   4.376 -1.1282 -0.0007  1.1853
24988SOL     OW76404   6.519   6.797   3.810 -0.1921  0.6771 -0.3636
24988SOL    HW176405   6.550   6.826   3.896 -0.4078 -0.0378 -0.0366
24988SOL    HW276406   6.435   6.755   3.828 -0.8033  1.5615 -1.0813
24989SOL     OW76407   5.892   0.167   9.704  0.5916  0.3289  0.6545
24989SOL    HW176408   5.860   0.187   9.792 -1.6588  1.2482 -0.3024
24989SOL    HW276409   5.884   0.072   9.697 -1.6533  0.4667  0.6366
24990SOL     OW76410   5.866   2.511  11.486 -0.1315 -0.4281  0.3434
24990SOL    HW176411   5.893   2.455  11.413  0.8146  0.8145 -0.2816
24990SOL    HW276412   5.773   2.529  11.469 -0.2701 -1.2300  0.1910
24991SOL     OW76413   1.009   0.809   2.977 -0.1982 -0.3292 -0.4006
24991SOL    HW176414   1.078   0.850   3.029 -0.0378 -0.9978 -0.0827
24991SOL    HW276415   0.999   0.867   2.901  0.2719  0.1050 -0.1378
24992SOL     OW76416   4.057   1.113   8.538 -0.3300  0.0530  0.5372
24992SOL    HW176417   4.126   1.067   8.489 -0.4016  0.8049 -0.2970
24992SOL    HW276418   4.018   1.045   8.594  0.9840 -0.4198  0.9246
24993SOL     OW76419   4.286   0.332  11.152 -0.8274 -0.3419 -0.2446
24993SOL    HW176420   4.241   0.406  11.112 -3.0243 -2.2873 -1.6860
24993SOL    HW276421   4.374   0.334  11.114 -1.0926  1.0640 -0.8442
24994SOL     OW76422   0.250   3.094  10.607  0.8022  0.3164  0.1987
24994SOL    HW176423   0.303   3.128  10.679  1.1881  1.3087 -0.5255
24994SOL    HW276424   0.159   3.099  10.639  1.1265 -3.4688  2.3204
24995SOL     OW76425   2.211   6.382   4.470 -0.0487 -0.1341  0.0363
24995SOL    HW176426   2.192   6.459   4.416  1.2724  1.7214  2.0433
24995SOL    HW276427   2.276   6.333   4.419 -1.0689 -0.1085 -1.3752
24996SOL     OW76428   6.107   1.663   2.396 -0.0511  0.0543 -0.0668
24996SOL    HW176429   6.029   1.609   2.388  0.0631  0.0634 -1.4651
24996SOL    HW276430   6.170   1.607   2.442  0.5139 -1.5913 -2.6291
24997SOL     OW76431   0.555   2.332  10.042 -0.3291  0.0417  0.3323
24997SOL    HW176432   0.522   2.264   9.983  0.0532 -0.0020  0.1633
24997SOL    HW276433   0.634   2.294  10.079  1.3106  1.3107 -1.6461
24998SOL     OW76434   3.215   7.598   9.756  0.3548 -0.0529  0.0573
24998SOL    HW176435   3.130   7.639   9.771  0.8538  1.5248 -1.1829
24998SOL    HW276436   3.276   7.649   9.809  0.6840 -0.5838  0.1982
24999SOL     OW76437   1.760   7.713   9.934  0.4590  0.4010  0.4734
24999SOL    HW176438   1.848   7.677   9.926 -0.2937 -1.2003 -2.2406
24999SOL    HW276439   1.706   7.653   9.882 -2.2087  1.4169  1.9182
25000SOL     OW76440   1.400   7.002   9.138  0.9582  0.4545  0.7922
25000SOL    HW176441   1.424   7.072   9.199 -1.5542  1.4368  0.7454
25000SOL    HW276442   1.325   6.959   9.178 -0.2833  0.6507 -1.2079
25001SOL     OW76443   7.801   6.195   6.956 -0.2456 -0.0982  0.1621
25001SOL    HW176444   7.864   6.204   6.884 -0.1111 -0.3756  0.2429
25001SOL    HW276445   7.831   6.258   7.022 -0.2339 -0.0098  0.0729
25002SOL     OW76446   5.973   2.224   7.347 -0.8298 -0.0594  0.5495
25002SOL    HW176447   5.904   2.276   7.305 -0.6753  1.5104  2.1091
25002SOL    HW276448   5.971   2.251   7.439  1.6860 -0.1503  0.7037
25003SOL     OW76449   1.494   5.714  11.243 -0.2865 -0.0644  0.1931
25003SOL    HW176450   1.494   5.770  11.165  0.2953  0.3865  0.5070
25003SOL    HW276451   1.408   5.727  11.282 -0.0307  0.9063  0.4607
25004SOL     OW76452   0.994   5.736   9.289 -0.3477 -0.3613  0.1226
25004SOL    HW176453   0.970   5.658   9.240  0.8082 -0.4568 -0.3377
25004SOL    HW276454   1.066   5.707   9.346  0.7461  0.5532 -0.7387
25005SOL     OW76455   2.741   2.037   4.381  0.8163 -0.6788 -0.9822
25005SOL    HW176456   2.749   2.126   4.348  0.8058 -0.5812 -0.7210
25005SOL    HW276457   2.665   2.039   4.439  0.0051 -1.1631 -1.9817
25006SOL     OW76458   4.008   0.346   8.076 -0.4119  0.3498  0.1760
25006SOL    HW176459   4.009   0.285   8.150  2.5460  0.8058  0.6244
25006SOL    HW276460   4.046   0.427   8.110 -1.9083  1.6497 -1.0795
25007SOL     OW76461   5.288   0.670   2.725  0.3121 -0.6100  0.3601
25007SOL    HW176462   5.319   0.706   2.641 -0.2724  0.5009  0.5894
25007SOL    HW276463   5.362   0.680   2.784  0.5942 -1.0178  0.0745
25008SOL     OW76464   3.847   6.309   5.163  0.3405 -0.1357 -0.5372
25008SOL    HW176465   3.754   6.327   5.151  0.1757 -0.4843  0.1595
25008SOL    HW276466   3.875   6.268   5.081 -0.3544 -0.9443 -0.3790
25009SOL     OW76467   2.437   2.734  12.371  0.5044  0.1501  0.0784
25009SOL    HW176468   2.455   2.641  12.363 -1.4941 -0.5559  2.6110
25009SOL    HW276469   2.464   2.757  12.460  0.4404  1.8759 -0.3021
25010SOL     OW76470   0.565   7.636  10.234 -0.3374  0.0966  0.1249
25010SOL    HW176471   0.641   7.666  10.185 -0.5815  0.3691 -0.0976
25010SOL    HW276472   0.579   7.542  10.246 -0.5058 -0.0799 -0.9143
25011SOL     OW76473   6.257   0.711   7.196  0.0683  0.3034 -0.2988
25011SOL    HW176474   6.204   0.677   7.124  0.9877  0.8187 -1.2548
25011SOL    HW276475   6.339   0.663   7.190  0.1888  0.4292  0.3378
25012SOL     OW76476   2.197   1.295   5.168 -0.6305 -0.0282 -0.2682
25012SOL    HW176477   2.291   1.292   5.148 -0.5498 -2.5616  0.1715
25012SOL    HW276478   2.193   1.312   5.262 -0.4194 -2.8615  0.3367
25013SOL     OW76479   1.601   1.856   4.314  0.1426  0.0318  0.0077
25013SOL    HW176480   1.542   1.922   4.350 -0.1296 -1.2173  2.0344
25013SOL    HW276481   1.687   1.899   4.313 -0.0303  0.4537  1.2815
25014SOL     OW76482   6.477   4.358   6.957  0.2060  0.0974  0.2241
25014SOL    HW176483   6.573   4.366   6.951  0.3920 -2.3706 -1.6030
25014SOL    HW276484   6.454   4.407   7.036  2.6632  2.7512 -0.5277
25015SOL     OW76485   5.357   6.501   8.402 -0.6943  0.0958 -0.1077
25015SOL    HW176486   5.333   6.594   8.404  1.4230  0.9783 -4.0862
25015SOL    HW276487   5.280   6.459   8.363 -1.1628  0.3831  0.4826
25016SOL     OW76488   6.961   6.292   0.230 -0.4866  0.0969 -0.4626
25016SOL    HW176489   6.867   6.296   0.245 -0.8276 -1.8724 -1.6589
25016SOL    HW276490   6.988   6.208   0.268  0.9792  1.0331  0.6813
25017SOL     OW76491   1.884   0.143   5.007  0.3216 -0.2252  0.1805
25017SOL    HW176492   1.910   0.061   5.050 -0.5727 -0.0461  1.1095
25017SOL    HW276493   1.966   0.189   4.991  0.6748  0.6590  3.7081
25018SOL     OW76494   5.618   0.421   8.244 -0.0554 -0.0451  0.2080
25018SOL    HW176495   5.630   0.505   8.289 -2.0618  0.4303 -0.0552
25018SOL    HW276496   5.570   0.367   8.307 -1.5020  0.0958 -0.7319
25019SOL     OW76497   7.111   6.461   2.938 -0.3017  0.1080  0.5169
25019SOL    HW176498   7.070   6.417   3.012  0.4184  1.5110  1.8071
25019SOL    HW276499   7.205   6.448   2.951 -0.2046 -1.0849 -1.1245
25020SOL     OW76500   3.669   4.830   7.945  0.4051  0.6314 -0.3499
25020SOL    HW176501   3.733   4.761   7.927  1.4956  0.9918  1.8840
25020SOL    HW276502   3.663   4.879   7.862  3.1705  0.6938 -0.5958
25021SOL     OW76503   1.306   4.469   9.284  0.2325 -0.1841 -0.2326
25021SOL    HW176504   1.225   4.500   9.243  0.4157 -0.9179 -1.1796
25021SOL    HW276505   1.375   4.496   9.224  0.5499 -0.8476 -0.1769
25022SOL     OW76506   3.359   4.335   3.892 -0.2303  0.0594  0.1071
25022SOL    HW176507   3.290   4.270   3.904 -1.0687  1.1352  1.3891
25022SOL    HW276508   3.343   4.400   3.960  2.0487  0.3732  0.4129
25023SOL     OW76509   7.829   4.955   7.153  0.3064  0.1650 -0.0083
25023SOL    HW176510   7.810   4.955   7.247  2.1979 -0.7745  0.4185
25023SOL    HW276511   7.743   4.952   7.111 -0.5504 -1.6123  1.7228
25024SOL     OW76512   6.782   7.049  10.067  0.3210  0.1832 -0.3453
25024SOL    HW176513   6.835   7.091  10.000  1.1704 -1.0117 -0.4611
25024SOL    HW276514   6.836   7.051  10.146  1.2196 -2.2766 -0.7966
25025SOL     OW76515   7.485   4.844   4.373 -0.2956 -0.8484 -0.1156
25025SOL    HW176516   7.470   4.906   4.302 -1.3393  0.8866  1.5148
25025SOL    HW276517   7.410   4.785   4.369 -1.0038 -0.0032  0.2440
25026SOL     OW76518   0.385   6.193  12.313 -0.4358 -0.4605  0.1661
25026SOL    HW176519   0.363   6.190  12.406 -2.0056  2.9129  0.0729
25026SOL    HW276520   0.315   6.143  12.270  0.1619 -1.8268  0.7283
25027SOL     OW76521   5.488   5.924  11.548 -0.1865 -0.2539 -0.3523
25027SOL    HW176522   5.472   5.925  11.642  1.3872 -0.1542 -0.0488
25027SOL    HW276523   5.412   5.968  11.510 -0.4092  0.5378  0.9531
25028SOL     OW76524   4.333   4.760  11.230 -0.0660  0.4272 -0.0222
25028SOL    HW176525   4.249   4.806  11.238  0.0370  0.5455  0.3889
25028SOL    HW276526   4.373   4.768  11.317  0.6624  0.9382 -0.4018
25029SOL     OW76527   3.295   2.839   1.120  0.2889  0.2646  0.0168
25029SOL    HW176528   3.249   2.863   1.201 -0.1594  2.0222 -0.6993
25029SOL    HW276529   3.349   2.916   1.101  0.8904 -0.3977 -1.0024
25030SOL     OW76530   6.400   1.584   7.405 -0.3364 -0.1591 -0.0470
25030SOL    HW176531   6.382   1.670   7.443 -0.5799 -0.0237 -0.4620
25030SOL    HW276532   6.488   1.562   7.437 -1.5678 -1.2959  2.8527
25031SOL     OW76533   0.896   4.887   1.859  0.3005 -0.3803 -0.0983
25031SOL    HW176534   0.896   4.974   1.819  0.0260 -0.5522 -0.4871
25031SOL    HW276535   0.868   4.829   1.788  2.2153 -1.0438 -0.3577
25032SOL     OW76536   5.681   7.811   3.351  0.0089  0.4256  0.0944
25032SOL    HW176537   5.607   7.794   3.409 -0.9096  1.0150 -0.8738
25032SOL    HW276538   5.647   7.872   3.286  0.9009 -0.5220 -1.3023
25033SOL     OW76539   4.452   0.005   0.504  0.1376 -0.1590 -0.0719
25033SOL    HW176540   4.538  -0.024   0.476 -0.1428 -1.1743  0.0843
25033SOL    HW276541   4.455   0.005   0.599 -0.5686 -1.9847 -0.0023
25034SOL     OW76542   3.733   2.527   0.055 -0.0624  0.4042 -0.9612
25034SOL    HW176543   3.744   2.613   0.097  1.4789 -0.2349  0.0423
25034SOL    HW276544   3.667   2.483   0.108  0.5937  0.2615 -0.2325
25035SOL     OW76545   5.399   2.245   5.546  0.0008 -0.2934  0.1328
25035SOL    HW176546   5.443   2.303   5.608 -0.3544  0.6255 -0.4668
25035SOL    HW276547   5.384   2.164   5.596  0.0557  0.2956  1.1247
25036SOL     OW76548   1.576   1.292   0.942  0.5844 -0.4429  0.2894
25036SOL    HW176549   1.623   1.251   1.014  2.0358  2.6812  1.2857
25036SOL    HW276550   1.502   1.337   0.983  1.2969  1.1835 -0.1593
25037SOL     OW76551   3.444   0.974   8.742  0.9880 -0.1343  0.2175
25037SOL    HW176552   3.489   1.023   8.674 -0.3655  0.2867 -0.4116
25037SOL    HW276553   3.372   1.031   8.769  1.0338 -0.6277  1.4419
25038SOL     OW76554   0.641   1.594   3.189 -0.6049 -0.2932  0.0012
25038SOL    HW176555   0.563   1.611   3.136  0.0931  1.0950 -0.6378
25038SOL    HW276556   0.637   1.660   3.259 -0.3677 -0.6658  0.3681
25039SOL     OW76557   7.793   7.853   1.997 -0.5914 -0.7819 -0.2432
25039SOL    HW176558   7.795   7.821   2.087 -0.2991 -1.1898 -0.3885
25039SOL    HW276559   7.730   7.924   1.998 -0.2877 -0.5076  0.3775
25040SOL     OW76560   7.594   4.068   2.496 -0.3886 -0.1411  0.2437
25040SOL    HW176561   7.565   3.977   2.505  0.1386 -0.2656  0.7187
25040SOL    HW276562   7.566   4.093   2.408 -1.2480 -0.4993  0.4060
25041NA      NA76563   3.480   4.907   2.402 -0.3036  0.3830  0.3624
25042NA      NA76564   6.916   0.912   7.396  0.3512 -0.0604  0.3012
25043NA      NA76565   4.987   0.399   1.899  0.2692  0.1154  0.2127
25044NA      NA76566   2.160   4.259  10.955 -0.1734  0.1825  0.2933
25045NA      NA76567   5.201   3.391   1.319  0.1085  0.1569 -0.1173
25046NA      NA76568   1.285   2.433   2.469  0.0131  0.1966  0.4651
25047NA      NA76569   4.225   3.480   7.654  0.0641  0.6822 -0.1026
25048NA      NA76570   6.293   0.182   0.263 -0.2485 -0.0622  0.0827
25049NA      NA76571   0.581   2.359   0.506 -0.3724 -0.1985 -0.0467
25050NA      NA76572   4.515   3.788   1.127 -0.0335  0.2788  0.0539
25051NA      NA76573   3.355   3.693   4.770  0.2427  0.6750 -0.2519
25052NA      NA76574   3.829   0.814   3.412  0.2373 -0.3982 -0.2284
25053NA      NA76575   5.475   4.720   4.145 -0.0746 -0.2802 -0.0866
25054NA      NA76576   4.439   2.981   7.603  0.1976  0.0075  0.1779
25055NA      NA76577   0.131   5.747  11.258 -0.1214  0.1654  0.1289
25056NA      NA76578   7.161   3.317   1.565 -0.5016  0.2428  0.2701
25057NA      NA76579   7.104   4.237  12.221  0.1113  0.3495  0.1293
25058NA      NA76580   4.624   7.523  10.460 -0.2043  0.3244  0.5944
25059NA      NA76581   3.978   5.109  10.872 -0.1681 -0.0554  0.7640
25060NA      NA76582   1.071   1.008   9.177 -0.1567 -0.2637 -0.1135
25061NA      NA76583   5.228   4.947   0.855  0.5390 -0.0786  0.2108
25062NA      NA76584   2.252   6.406  12.132  0.1676  0.3668  0.0569
25063NA      NA76585   3.559   6.878  11.430 -0.5128 -0.0882 -0.6279
25064NA      NA76586   4.441   1.357   2.517  0.2948  0.2133  0.3482
25065NA      NA76587   6.454   5.762   0.345 -0.1358 -0.1734 -0.2107
25066NA      NA76588   7.078   7.175  12.319 -0.3690  0.0233 -0.0488
25067NA      NA76589   3.605   1.250   8.146  0.5705  0.1927 -0.0190
25068NA      NA76590   4.664   2.697  11.627  0.0568 -0.0967  0.1429
25069NA      NA76591   2.430   7.657   5.282  0.6883  0.2973  0.0385
25070NA      NA76592   6.904   0.244   8.238  0.1020  0.4562  0.2099
25071NA      NA76593   5.830   3.184  11.113 -0.3080 -0.1453 -0.0074
25072NA      NA76594   7.403   1.393   7.854  0.1113  0.1432 -0.4813
25073NA      NA76595   5.775   5.195   7.517 -0.2117 -0.2791 -0.3232
25074NA      NA76596   5.127   6.178   3.422 -0.1724 -0.4672 -0.0534
25075NA      NA76597   6.929   7.265   8.658 -0.2675 -0.4590  0.0380
25076NA      NA76598   5.656   0.991   2.723  0.1644 -0.1666 -0.4981
25077NA      NA76599   1.851   6.068   4.524 -0.3700 -0.3384 -0.0617
25078NA      NA76600   5.557   7.049   1.731  0.1225 -0.1249 -0.2697
25079NA      NA76601   4.782   6.538   0.826 -0.3313 -0.3452  0.2039
25080NA      NA76602   7.915   2.566  10.794 -0.2134  0.0957  0.3104
25081NA      NA76603   7.319   6.460  10.609  0.1890 -0.3691 -0.0328
25082NA      NA76604   7.915   7.211   4.354 -0.0326  0.3182  0.3944
25083NA      NA76605   4.151   6.494   9.862  0.0298 -0.1326 -0.0311
25084NA      NA76606   2.548   3.795   5.526 -0.3035  0.1980  0.6170
25085NA      NA76607   5.452   3.706   9.614  0.4960  0.3664 -0.1737
25086NA      NA76608   7.751   3.567   2.182  0.1877  0.4624  0.3733
25087NA      NA76609   4.819   0.387   1.191 -0.2733  0.1023 -0.2715
25088NA      NA76610   2.076   4.758   3.140 -0.1739  0.2829 -0.0583
25089NA      NA76611   3.627   3.956   6.487 -0.2205  0.1755 -0.1461
25090NA      NA76612   6.697   7.158   1.347  0.7620 -0.2616  0.0685
25091NA      NA76613   2.884   6.537   0.896  0.3522  0.1780 -0.3287
25092NA      NA76614   3.347   6.339   1.972 -0.0517  0.0971  0.0291
25093NA      NA76615   4.882   7.575   7.891 -0.2331  0.3528 -0.0494
25094NA      NA76616   6.684   6.205   2.988 -0.7777 -0.6202 -0.1519
25095NA      NA76617   0.202   4.797  10.233  0.5554 -0.1438 -0.2447
25096NA      NA76618   3.487   0.768   8.834 -0.2461  0.5944 -0.5835
25097NA      NA76619   5.494   5.128  11.301  0.2480 -0.0879 -0.3826
25098NA      NA76620   0.785   0.660   9.602  0.1612 -0.1275  0.4443
25099NA      NA76621   3.675   1.596  11.407  0.1167 -0.2726 -0.0413
25100NA      NA76622   7.246   5.033   2.434  0.2038 -0.2362 -0.0865
25101NA      NA76623   1.788   4.527   8.231 -0.2205  0.3343 -0.3658
25102NA      NA76624   2.867   6.039   2.930  0.3046 -0.1096 -0.7543
25103NA      NA76625   7.086   6.887   5.557 -0.0992  0.3561 -0.1510
25104NA      NA76626   0.110   3.425   8.988 -0.4734 -0.1958 -0.0712
25105NA      NA76627   5.375   2.124   5.348 -0.4695  0.7566  0.0313
25106NA      NA76628   7.879   5.574   0.082 -0.3773 -0.0547  0.1733
25107NA      NA76629   4.336   6.818   0.926  0.4978  0.4850 -0.1040
25108NA      NA76630   0.966   3.179   5.464 -0.2343 -0.3594  0.3283
25109NA      NA76631   1.612   3.914   4.411 -0.5420 -0.6398 -0.8392
25110NA      NA76632   0.294   1.989   5.927  0.0926 -0.2017  0.0184
25111NA      NA76633   7.076   0.505   2.126  0.3943 -0.0999  0.1785
25112NA      NA76634   7.662   4.432   4.655  0.4554 -0.6337 -0.4064
25113NA      NA76635   2.831   5.831   0.092  0.1853  0.4136  0.3663
25114NA      NA76636   7.706   0.986   7.100  0.1016  0.3084 -0.2859
25115NA      NA76637   5.019   1.609  11.985 -0.3762 -0.0701  0.1304
25116NA      NA76638   5.612   4.647   6.148 -0.2227 -0.0088  0.3024
25117NA      NA76639   5.785   0.200   1.218 -0.0360 -0.2190  0.3974
25118NA      NA76640   0.528   6.759   6.649 -0.2399 -0.4143  0.4972
25119NA      NA76641   2.810   7.918   3.057 -0.5459  0.3388 -0.0492
25120NA      NA76642   2.460   1.897   5.368 -0.4238 -0.0559  0.4036
25121NA      NA76643   4.044   7.445   7.728 -0.2334  0.1435  0.2135
25122NA      NA76644   0.705   5.809  12.250  0.2456 -0.7014 -0.0453
25123NA      NA76645   0.602   5.597   5.515 -0.0394 -0.1194  0.5440
25124NA      NA76646   6.517   7.356   7.902 -0.1695  0.4326  0.2436
25125NA      NA76647   4.817   3.085   3.592  0.0260 -0.5061 -0.1699
25126NA      NA76648   4.492   1.601  10.457 -0.0210 -0.1266 -0.5159
25127NA      NA76649   2.519   0.888  10.319  0.1220 -0.1304 -0.0447
25128NA      NA76650   7.293   6.073   1.039  0.1285 -0.4159  0.0056
25129NA      NA76651   0.000   5.024   3.264 -0.3786  0.6536 -0.1659
25130NA      NA76652   6.730   0.977   1.620 -0.0959 -0.2150  0.1426
25131NA      NA76653   4.484   5.273   7.697  0.5936 -0.0296 -0.2333
25132NA      NA76654   7.376   6.049   4.679 -0.2253 -0.1676  0.3351
25133NA      NA76655   7.044   6.721   9.280  0.1137  0.2491 -0.8643
25134NA      NA76656   2.306   3.341   0.100  0.1782 -0.2964  0.2030
25135NA      NA76657   2.822   4.283   5.406 -0.2391 -0.3178 -0.3329
25136NA      NA76658   1.742   5.296   3.212  0.0859  0.0373 -0.3219
25137NA      NA76659   3.875   4.386   5.988  0.5720  0.5895 -0.5051
25138NA      NA76660   5.186   7.471   1.880 -0.7277 -0.3367 -0.4057
25139NA      NA76661   7.675   4.709  10.937 -0.4148 -0.3893  0.0483
25140NA      NA76662   3.362   3.693   7.302  0.1634 -0.0915 -0.0879
25141NA      NA76663   4.869   2.504   1.784  0.3392 -0.4892 -0.2872
25142NA      NA76664   3.130   4.926   4.014 -0.2871  0.0466 -0.2913
25143NA      NA76665   1.008   5.165   7.500 -0.1467  0.4472  0.1782
25144NA      NA76666   5.740   0.766  11.096  0.1745 -0.1205  0.1706
25145NA      NA76667   1.799   2.696   1.303  0.2659 -0.1659 -0.1841
25146NA      NA76668   1.371   5.960   0.238  0.0378  0.1481  0.5041
25147NA      NA76669   7.507   3.221   8.255  0.4664  0.8016 -0.6424
25148NA      NA76670   0.990   2.600   3.987 -0.0583  0.0582 -0.0030
25149NA      NA76671   6.426   4.125  12.131 -0.1847 -0.1355  0.4293
25150NA      NA76672   3.078   6.352   6.789  0.0165 -0.0852  0.2219
25151NA      NA76673   0.293   4.390   0.628  0.3661  0.3285 -0.4098
25152NA      NA76674   5.193   4.368   8.547 -0.3020 -0.3222 -0.9867
25153NA      NA76675   3.526   5.354   7.134 -0.2245  0.0204 -0.5743
25154NA      NA76676   7.858   7.013   4.036  0.3705 -0.5258 -0.5639
25155NA      NA76677   0.239   3.633  11.959 -0.1208  0.1733  0.1676
25156NA      NA76678   0.322   2.899   1.995 -0.4858  0.8817  0.0350
25157NA      NA76679   7.765   0.254   6.352 -0.1063 -0.3904  0.1168
25158NA      NA76680   0.208   7.309   2.980 -0.0277 -0.5279 -0.1422
25159NA      NA76681   1.268   2.035   5.669 -0.4195  0.4799 -0.4693
25160NA      NA76682   2.082   3.036   2.481  0.3425  0.3281  0.3543
25161NA      NA76683   2.412   4.871   3.554  0.0237  0.0625  0.2960
25162NA      NA76684   2.875   3.854   9.557 -0.4607 -0.2849  0.5379
25163NA      NA76685   0.237   3.492   5.063 -0.3172 -0.3818 -0.0309
25164NA      NA76686   5.383   4.137   5.445 -0.4614 -0.5532  0.3820
25165NA      NA76687   5.164   1.698  11.392 -0.2864 -0.0936  0.0152
25166NA      NA76688   1.544   0.338   2.941  0.2793 -0.1248 -0.5208
25167NA      NA76689   1.844   2.072   7.695  0.3240 -0.3770 -0.3515
25168NA      NA76690   3.914   5.326   5.778  0.4381  0.4397 -0.0890
25169NA      NA76691   6.838   3.626   6.310  0.2860  0.6099 -0.4705
25170NA      NA76692   6.424   1.638   4.638  0.2102 -0.2563 -0.2758
25171NA      NA76693   1.728   3.123  11.355 -0.0433  0.1451 -0.2778
25172NA      NA76694   3.982   7.030   2.527 -0.4685 -1.2641  0.1941
25173NA      NA76695   2.910   0.726   3.438  0.0411  0.1942  0.0383
25174NA      NA76696   7.826   6.621   7.137  0.3863  0.1128 -0.3916
25175NA      NA76697   0.084   4.809  12.163  0.7373 -0.1093 -0.8278
25176NA      NA76698   5.441   6.798   7.122 -0.1008 -0.0330  0.2406
25177NA      NA76699   6.872   1.634  12.015 -0.1191 -0.5891  0.3708
25178NA      NA76700   1.864   7.821   6.945 -0.1863  0.1286 -0.0178
25179NA      NA76701   3.496   5.147   8.983 -0.2478  0.7431  0.6208
25180NA      NA76702   7.646   3.277   5.469  0.4592 -0.2150 -0.1792
25181NA      NA76703   0.129   7.122   1.182 -0.1261 -0.5936  0.5247
25182NA      NA76704   4.362   4.847   6.201  0.3599 -0.3367 -0.4329
25183NA      NA76705   0.777   1.441   7.940  0.1725  0.4255 -0.1224
25184NA      NA76706   3.025   0.679   1.665  0.5479  0.0157  0.2913
25185NA      NA76707   3.469   1.352   0.598 -0.2531  0.4429 -0.4091
25186NA      NA76708   1.519   3.896   3.577 -0.5227 -0.0264 -0.2366
25187NA      NA76709   7.497   5.664   7.762 -0.2874  0.3134 -0.7664
25188NA      NA76710   7.583   5.262   8.468  0.1166 -0.1668 -0.6855
25189NA      NA76711   4.961   6.107   0.032 -0.2631 -0.2607  0.1312
25190NA      NA76712   4.549   7.728   3.133 -0.5472  0.5123 -0.1488
25191NA      NA76713   7.271   2.079   2.707  0.1316 -0.1532  0.2368
25192NA      NA76714   7.098   6.895   1.882 -0.4855 -0.3028  0.1790
25193NA      NA76715   1.465   0.316   5.192 -0.2959 -0.1115  0.4381
25194NA      NA76716   6.841   7.063   4.742 -0.2047  0.1715  0.4683
25195NA      NA76717   2.263   2.140  12.165 -0.1917 -0.1912  0.2217
25196NA      NA76718   2.423   6.518   6.298  0.2066  0.4861 -0.2645
25197NA      NA76719   3.379   3.213   4.528  0.3699 -0.3847 -0.1292
25198NA      NA76720   6.853   7.343   2.601  0.0668 -0.0929 -0.2476
25199NA      NA76721   5.422   3.060   8.026 -0.0228 -0.4057  0.5156
25200NA      NA76722   4.958   7.462   5.095 -0.0796 -0.0423  0.0048
25201NA      NA76723   0.344   3.848   1.877  0.1160  0.1850  0.1693
25202NA      NA76724   1.408   7.204   5.931 -0.3900 -0.2313 -0.0255
25203NA      NA76725   5.055   2.000   3.241  0.6523  0.3930  0.0141
25204NA      NA76726   6.242   4.853   4.651 -0.0499  0.2598  0.3263
25205NA      NA76727   3.142   0.379   3.818  0.2447 -0.0438 -0.0568
25206NA      NA76728   4.624   3.147   4.721 -0.3888 -0.1469 -0.1225
25207NA      NA76729   0.173   6.455   1.737  0.1169 -0.1929  0.1492
25208NA      NA76730   7.553   2.005   8.513  0.6375 -0.1014  0.4369
25209NA      NA76731   5.104   5.002   8.640 -0.2756 -0.0017  0.0669
25210NA      NA76732   5.180   6.260   9.046  0.1970 -0.2715 -0.0002
25211NA      NA76733   6.421   4.262   9.188 -0.0308 -0.0414 -0.0524
25212NA      NA76734   2.846   5.235  11.789  0.1459 -0.3683  0.1883
25213NA      NA76735   2.219   2.967  10.274  0.8387  0.6179  1.2187
25214NA      NA76736   7.306   2.929   2.173  0.1234  0.5389  0.6960
25215NA      NA76737   3.873   2.947   7.509 -0.7192 -0.1397 -0.0167
25216NA      NA76738   4.580   0.555   6.230  0.2954  0.0105 -0.5169
25217NA      NA76739   3.277   4.057   7.373 -0.1965  0.1719 -0.3990
25218NA      NA76740   2.680   1.721  11.442  0.2665 -0.0468  0.1941
25219NA      NA76741   1.308   5.581   1.954  0.0664  0.0498  0.2826
25220NA      NA76742   3.812   3.009  10.110 -0.0033  0.1237  0.1004
25221NA      NA76743   3.647   4.407   0.861  0.1513  0.5197  0.5049
25222NA      NA76744   6.792   2.908   3.037  0.3045 -0.2088 -0.3298
25223NA      NA76745   6.356   4.459   1.477 -0.2446 -0.0654 -0.1811
25224NA      NA76746   4.927   3.669   8.039  0.5906  0.3090  0.3362
25225NA      NA76747   7.297   6.479  12.129 -0.0942 -0.2079 -0.3703
25226NA      NA76748   7.250   7.257   7.649  0.5948 -0.1779  0.3322
25227NA      NA76749   6.589   2.155  10.860  0.1519 -0.5735 -0.0381
25228NA      NA76750   3.257   5.553   6.165 -0.1681  0.2789 -0.0000
25229NA      NA76751   6.265   7.621  11.679 -0.3276  0.1521  0.0358
25230NA      NA76752   0.461   1.615   0.732 -0.5195  0.0232  0.0504
25231NA      NA76753   6.287   7.808   1.772  0.0901 -0.1470 -0.0181
25232NA      NA76754   5.187   3.923   8.088 -0.4963 -0.0977 -0.1577
25233NA      NA76755   1.603   3.362  10.730  0.0688  0.1282 -0.1879
25234NA      NA76756   1.498   0.525  12.274  0.1476 -0.2588  0.7911
25235NA      NA76757   3.954   3.034   4.802  0.1767  0.0502  0.1455
25236NA      NA76758   0.667   3.246   9.151 -0.1741 -0.3912  0.0665
25237NA      NA76759   7.435   5.463   6.197 -0.0463 -0.0196  0.0562
25238NA      NA76760   5.744   4.604   8.435 -0.0566  0.4222  0.0672
25239NA      NA76761   5.293   3.847   7.684 -0.0233  0.1482 -0.0917
25240NA      NA76762   6.142   2.830   2.732 -0.1338  0.1303  0.4602
25241NA      NA76763   5.638   1.914   6.901  0.3447  0.0965  0.0788
25242NA      NA76764   4.778   4.769   2.650 -0.2301 -0.0147  0.1150
25243NA      NA76765   1.013   6.164   5.968 -0.5919 -0.2886 -0.1704
25244NA      NA76766   6.806   5.665   3.786  0.1410  0.4801  0.2446
25245NA      NA76767   2.342   1.516   3.538 -0.0420  0.4584  0.2819
25246NA      NA76768   1.549   1.274   0.720  0.3334  0.0590  0.1844
25247NA      NA76769   0.154   0.962   5.133  0.0731 -0.0590  0.1715
25248NA      NA76770   7.437   1.451   5.146 -0.0513 -0.5865 -0.0108
25249NA      NA76771   4.596   4.190   0.218  0.3561 -0.3438  0.3646
25250NA      NA76772   3.439   1.799   9.018  0.0583  0.4811 -0.3803
25251NA      NA76773   1.433   2.642   9.087  0.4360  0.4537  0.5420
25252NA      NA76774   6.130   4.208   3.077 -0.2010 -0.2567  0.0766
25253NA      NA76775   4.037   7.360   3.433 -0.2354 -0.0607 -0.2771
25254NA      NA76776   6.736   2.742   5.481  0.1606 -0.2552  0.1297
25255NA      NA76777   5.223   6.183   6.258  0.2264 -0.3116 -0.0715
25256NA      NA76778   7.318   1.912   6.174 -0.1952  0.7388  0.0336
25257NA      NA76779   4.597   7.005   7.766  0.0526 -0.1030 -0.0352
25258NA      NA76780   7.504   0.843   6.745 -0.3620  0.1692  0.3694
25259NA      NA76781   4.711   5.893   3.097  0.8428  0.0903 -0.5370
25260NA      NA76782   5.435   0.979   4.615  0.1921  0.2883  0.2568
25261NA      NA76783   0.198   1.549   6.537  0.1918 -0.2794 -0.2636
25262NA      NA76784   5.595   0.149   6.528 -0.3285  0.1475 -0.1606
25263NA      NA76785   1.209   4.113   0.801  0.4119 -0.7622  0.5365
25264NA      NA76786   6.670   1.122   2.378  0.4129 -0.4332  0.1882
25265NA      NA76787   3.008   5.062   9.892  0.0868 -0.3852 -0.1115
25266NA      NA76788   5.562   3.869  10.595 -0.1053  0.0046 -0.4041
25267NA      NA76789   7.253   4.151  10.848  0.3483  0.1347  0.0204
25268NA      NA76790   6.863   4.843   6.905  0.4012 -0.1651 -0.1177
25269NA      NA76791   4.052   6.200   8.681 -0.2054  0.2676 -0.1436
25270NA      NA76792   2.376   0.436   2.991  0.0221 -0.4212  0.0748
25271NA      NA76793   6.150   4.828   8.047  0.5399  0.4954  0.3216
25272NA      NA76794   1.521   1.112   1.264 -0.1491 -0.0107  0.2932
25273NA      NA76795   0.992   3.793   4.226  0.4021  0.1304  0.1064
25274NA      NA76796   7.047   5.406  10.159  0.0912  0.0282  0.1740
25275NA      NA76797   5.881   4.192   2.330  0.0395  0.0736 -0.1068
25276NA      NA76798   5.237   7.848   5.517  0.4425  0.0990  0.0709
25277NA      NA76799   4.696   6.314   9.586 -0.7547 -0.4411 -0.4773
25278NA      NA76800   6.899   5.516   5.022 -0.1922  0.2055 -0.3798
25279NA      NA76801   2.211   5.304   8.572  0.0640 -0.1643  0.0139
25280NA      NA76802   0.942   7.126  11.329 -0.1141  0.0824  0.2560
25281NA      NA76803   7.310   2.703  10.170 -0.3678  0.0009  0.2877
25282NA      NA76804   1.401   2.094   3.065 -0.0891  0.1226 -0.1727
25283NA      NA76805   0.918   4.140   4.826  0.2092 -0.1090  0.1255
25284NA      NA76806   3.015   0.354   6.414  0.2758  0.2507  0.0791
25285NA      NA76807   4.266   5.674   2.257 -0.1238  0.0260 -0.2076
25286NA      NA76808   2.861   3.275   3.930 -0.1189  0.6527 -0.1835
25287NA      NA76809   6.455   5.691   5.494 -0.4069  0.5897 -0.0865
25288NA      NA76810   2.797   6.671  11.214  0.1193 -0.2543 -0.1036
25289NA      NA76811   4.862   4.584   5.919  0.0662  0.1001  0.0876
25290NA      NA76812   1.201   4.301   3.270  0.1090 -0.1926  0.0425
25291NA      NA76813   2.317   0.921   9.432  0.2500  0.2405  0.1643
25292NA      NA76814   2.506   0.409   6.818 -0.2002 -0.2109 -0.3543
25293NA      NA76815   4.272   7.599  12.292 -0.2121  0.2814 -0.0781
25294NA      NA76816   0.945   6.312   4.366 -0.5110  0.0333 -0.1838
25295NA      NA76817   4.053   3.927   6.937  0.3672  0.0800 -0.3858
25296NA      NA76818   4.665   4.490  11.557 -0.1988 -0.2821  0.2155
25297NA      NA76819   1.772   0.220  11.397  0.0786 -0.2744  0.3826
25298NA      NA76820   1.996   2.473   9.890  0.1492 -0.0208 -0.2798
25299NA      NA76821   5.060   0.950   9.675  0.2619 -0.3744 -0.4813
25300NA      NA76822   6.481   0.533   6.562  0.5916 -0.2971  0.1465
25301NA      NA76823   6.560   7.635   0.250 -0.5528 -0.3151 -0.6706
25302NA      NA76824   6.028   6.237   8.686 -0.0555  0.0088  0.0076
25303NA      NA76825   1.695   6.512   3.013  0.2863  0.1021 -0.3108
25304NA      NA76826   3.088   3.683   9.800 -0.2297  0.2288 -0.4544
25305NA      NA76827   7.620   0.583   4.216  0.1184 -0.1912  0.0994
25306NA      NA76828   3.176   0.281   5.725  0.2402  0.1546 -0.1720
25307NA      NA76829   0.397   3.394   1.000  0.5284 -0.1321 -0.1273
25308NA      NA76830   3.789   3.308   7.308 -0.0885  0.0418  0.3872
25309NA      NA76831   1.267   0.484   6.117 -0.7978 -0.4243  0.0086
25310NA      NA76832   1.362   7.194   7.646 -0.0848 -0.0662 -0.2576
25311NA      NA76833   2.014   1.378  11.602  0.1222  0.1150  0.2571
25312NA      NA76834   3.260   3.772   0.350  0.0152 -0.0839  0.0263
25313NA      NA76835   4.819   0.984   7.373 -0.1387  0.3550  0.3979
25314NA      NA76836   6.755   6.929   3.164  0.0768 -0.0953 -0.1040
25315NA      NA76837   6.285   2.430   7.661  0.1907 -0.2066  0.1071
25316NA      NA76838   2.732   2.127   1.365 -0.1196 -0.1428 -0.2130
25317NA      NA76839   0.376   3.689   8.179 -0.3778 -0.1116 -0.0818
25318NA      NA76840   6.113   5.711  12.078 -0.5809  0.3612  0.5539
25319NA      NA76841   6.870   5.934   6.871  0.2104  0.3017 -0.0951
25320NA      NA76842   0.190   5.790   0.698 -0.0538  0.2749 -0.1101
25321NA      NA76843   1.649   3.431   2.541  0.0597 -0.0349  0.3720
25322NA      NA76844   4.918   6.525   7.779 -0.0989  0.7601 -0.1922
25323NA      NA76845   6.060   3.307   4.475  0.0201 -0.0222 -0.1435
25324NA      NA76846   6.217   1.437   7.341  0.1512  0.2219  0.0478
25325NA      NA76847   1.203   5.570  10.702  0.1532 -0.2128  0.6871
25326NA      NA76848   5.184   4.666   4.613  0.0485  0.4561  0.2038
25327NA      NA76849   0.154   5.249   1.440 -0.8453  0.0436  0.4360
25328NA      NA76850   2.732   5.339   7.233  0.5141 -0.0247  0.4038
25329NA      NA76851   6.532   3.335   1.173  0.8223 -0.0258 -0.0419
25330NA      NA76852   0.040   6.471  10.554 -0.1019 -0.2681 -0.3924
25331NA      NA76853   4.124   0.243   9.747  0.0198 -0.2335  0.4593
25332NA      NA76854   5.750   1.110   9.190 -0.1735  0.0116  0.1534
25333NA      NA76855   0.870   2.766   9.161  0.0594  0.3144  0.0961
25334NA      NA76856   2.133   1.567   1.948 -0.4810 -0.0581 -0.2928
25335NA      NA76857   2.871   7.160   1.462  0.1021  0.2579 -0.2608
25336NA      NA76858   1.106   6.111   3.159  0.4296  0.4573  0.0391
25337NA      NA76859   2.878   5.383   3.635 -0.6750  0.4521 -0.1669
25338NA      NA76860   3.579   6.500   9.078  0.3611  0.0811 -0.2192
25339NA      NA76861   7.323   1.399   8.801 -0.0527  0.2763  0.1500
25340NA      NA76862   3.704   7.262   6.541  0.1672 -0.3335 -0.2936
25341NA      NA76863   1.251   4.417   8.493 -0.2457 -0.6396 -0.5265
25342NA      NA76864   7.681   5.239  11.884  0.2656  0.2441 -0.0878
25343NA      NA76865   7.591   2.926   5.364  0.1589 -0.0030 -0.4455
25344NA      NA76866   3.130   1.861   4.114  0.3600  0.0535 -0.1364
25345NA      NA76867   5.295   7.070   4.124  0.1424 -0.2284 -0.1851
25346NA      NA76868   5.398   5.043   3.384  0.1616 -0.6224 -0.1296
25347NA      NA76869   0.689   4.460   5.402 -0.4256  0.0225 -0.1463
25348NA      NA76870   7.889   0.443   3.492  0.2587  0.1186  0.1249
25349NA      NA76871   4.142   4.172   5.602  0.7226  0.2536  0.3501
25350NA      NA76872   7.474   3.203  11.203  0.1740 -0.1317  0.4885
25351NA      NA76873   1.932   4.654   6.337 -0.2569  0.5398  0.1185
25352NA      NA76874   0.096   1.820  10.381 -0.3900  0.0541 -0.2400
25353NA      NA76875   7.903   7.669  10.183 -0.1628  0.3160 -0.2974
25354NA      NA76876   2.148   6.114   8.099 -0.4125  0.3079 -0.8210
25355NA      NA76877   6.255   5.977   1.961 -0.1153  0.3792 -0.0575
25356NA      NA76878   6.747   4.002  10.079 -0.2721  0.2107 -0.0097
25357NA      NA76879   7.838   3.453   0.079  0.0563  0.0413 -0.2463
25358NA      NA76880   3.626   3.555   1.010 -0.4550  0.2289  0.0665
25359NA      NA76881   3.939   3.631  11.067 -0.2026  0.2153 -0.2016
25360NA      NA76882   5.145   6.391  12.085 -0.1732  0.2463 -0.4209
25361NA      NA76883   0.320   0.795   2.941  0.6426 -0.1431 -0.2322
25362NA      NA76884   4.158   1.197  11.454 -0.0248  0.1083 -0.4962
25363NA      NA76885   6.877   6.305   8.059  0.3289 -0.2542  0.3161
25364NA      NA76886   3.366   3.535   8.792  0.1115  0.5376 -0.2276
25365NA      NA76887   3.860   3.246  11.922  0.6499 -0.1231  0.3982
25366NA      NA76888   2.553   6.068   5.732  0.4620 -0.3209 -0.3184
25367NA      NA76889   7.246   3.074  11.845  0.0430  0.0585  0.1187
25368NA      NA76890   1.603   7.832   8.819 -0.0925 -0.1286 -0.1739
25369NA      NA76891   2.947   7.751   5.111 -0.3327  0.1561 -0.4164
25370NA      NA76892   5.094   4.234   2.085 -0.3313 -0.1403  0.1523
25371NA      NA76893   2.235   5.843  10.772 -0.0534  0.3290 -0.4475
25372NA      NA76894   5.000   1.198   7.995 -0.1988  0.0048 -0.3019
25373NA      NA76895   4.200   5.631  12.348 -0.2534  0.0136 -0.1476
25374NA      NA76896   0.400   5.740  10.570  0.2240  0.1246 -0.0717
25375NA      NA76897   0.730   7.304   0.282  0.2548 -0.0662 -0.5040
25376NA      NA76898   1.063   4.173   8.933 -0.0189  0.1217 -0.7753
25377NA      NA76899   3.335   4.914   6.789  0.0609  0.1082 -0.2285
25378NA      NA76900   2.065   6.959   9.030  0.2648  0.1410  0.1701
25379NA      NA76901   5.208   4.577   6.951 -0.3295 -0.5083  0.2940
25380NA      NA76902   4.171   2.890   4.580 -0.0316 -0.4145 -0.1097
25381NA      NA76903   1.166   6.640   2.333 -0.1670 -0.4935 -0.7412
25382NA      NA76904   4.595   6.149   5.772  0.0398 -0.5596  0.2231
25383NA      NA76905   4.130   1.748   2.174  0.3236 -0.2266 -0.0630
25384NA      NA76906   3.114   1.890   6.497  0.1143 -0.0725 -0.0015
25385NA      NA76907   2.038   5.919   3.871 -0.1887  0.3693 -0.2478
25386NA      NA76908   0.082   4.974   7.017  0.1135  0.3949  0.6159
25387NA      NA76909   7.839   7.326   5.484  0.3188 -0.0295 -0.1573
25388NA      NA76910   7.088   2.428   7.757  0.1848 -0.4091 -0.2195
25389NA      NA76911   5.935   5.373   9.762  0.2493 -0.5239 -0.1381
25390NA      NA76912   6.399   3.711   5.717 -0.0878  0.0315  0.0060
25391NA      NA76913   4.412   5.905  10.001  0.6612 -0.0183 -0.0660
25392NA      NA76914   3.970   3.878  10.514  0.2318  0.2246 -0.2541
25393NA      NA76915   4.761   6.297   4.559  0.2001  0.7343 -0.0190
25394NA      NA76916   2.795   4.360   4.281 -0.2297 -0.2364  0.1333
25395NA      NA76917   5.345   7.434   0.249 -0.2978 -0.3244  0.0393
25396NA      NA76918   6.645   6.411   4.528 -0.0631  0.1372  0.3468
25397NA      NA76919   3.663   4.677   3.541  0.1839 -0.2932  0.2102
25398NA      NA76920   3.838   4.896   6.423 -0.1684 -0.5992  0.7529
25399NA      NA76921   4.062   7.685   5.598 -0.2840 -0.1555  0.2178
25400NA      NA76922   5.673   2.293   3.291 -0.0029  0.2469  0.0880
25401NA      NA76923   5.493   1.998  10.495  0.1001  0.0379 -0.1306
25402NA      NA76924   3.206   2.871  10.329 -0.2445  0.4248 -0.1317
25403NA      NA76925   2.626   0.512   8.690 -0.2543 -0.2341  0.4026
25404NA      NA76926   7.198   6.184   3.904  0.1156 -0.4347 -0.1236
25405NA      NA76927   7.130   0.197   2.627  0.0559  0.4960 -0.3273
25406NA      NA76928   5.483   7.366  11.160  0.2124 -0.1949 -0.0564
25407NA      NA76929   2.747   6.031   7.062 -0.3126 -0.0916  0.1326
25408NA      NA76930   7.059   2.030   5.022 -0.1534 -0.7293 -0.2903
25409NA      NA76931   7.504   6.551   2.926 -0.1545  0.1952  0.1363
25410NA      NA76932   5.095   4.177   1.071  0.0630 -0.4051  0.0615
25411NA      NA76933   0.100   6.274   2.910  0.1723 -0.4238 -0.1509
25412NA      NA76934   3.820   4.438   3.984  0.0764 -0.0295 -0.2124
25413NA      NA76935   6.343   5.581   6.639  0.0217  0.1985 -0.3089
25414NA      NA76936   1.025   6.171   8.498 -0.1418 -0.0722  0.2940
25415NA      NA76937   4.974   1.269   5.731  0.1401 -0.2203  0.0729
25416NA      NA76938   1.244   7.424   1.683  0.2091  0.0544  0.1050
25417NA      NA76939   0.428   0.294   2.078 -0.2875 -0.2537 -0.7735
25418NA      NA76940   1.976   2.100   8.879 -0.2133  0.2991 -0.6264
25419NA      NA76941   3.241   7.050  12.057 -0.2308 -0.2506 -0.0599
25420NA      NA76942   6.585   4.938   1.509 -0.3336 -0.4006 -0.0385
25421NA      NA76943   4.652   0.232   5.579  0.0144  0.4510  0.1752
25422NA      NA76944   5.590   7.634   8.615 -0.2528  0.2511 -0.0670
25423NA      NA76945   4.718   6.904   4.493 -0.3427  0.0995  0.4050
25424NA      NA76946   4.287   6.290   7.006 -0.0214 -0.0668 -0.0251
25425NA      NA76947   4.494   6.620  10.707  0.5613 -0.4050 -0.3085
25426NA      NA76948   0.614   2.646  12.293 -0.1214  0.2731  0.0544
25427NA      NA76949   5.321   4.038  12.004  0.1720 -0.0487  0.1370
25428NA      NA76950   3.836   1.647   6.407  0.4743 -0.7260 -0.0029
25429NA      NA76951   1.695   5.552   1.629  0.2084  0.0527  0.0252
25430NA      NA76952   3.944   3.681   2.600 -0.3604 -0.6845 -0.0684
25431NA      NA76953   1.985   4.995   2.157 -0.1040  0.1179  0.2952
25432NA      NA76954   0.822   1.765  11.664 -0.3460  0.5331  0.6415
25433NA      NA76955   1.063   3.936  11.844 -0.4823 -0.1136  0.1694
25434NA      NA76956   4.731   3.155   6.557 -0.4623  0.1097 -0.3105
25435NA      NA76957   3.178   6.042  11.795 -0.1308  0.1090 -0.1063
25436NA      NA76958   6.794   2.012   3.318 -0.0631  0.0982  0.1742
25437NA      NA76959   4.083   3.162   2.087  0.0481 -0.5710  0.1339
25438NA      NA76960   4.707   6.632   2.706  0.3341 -0.0936  0.6232
25439NA      NA76961   6.417   3.431   9.925 -0.4390 -0.0894 -0.6445
25440NA      NA76962   4.188   0.459  10.019 -0.3228 -0.3044 -0.1686
25441NA      NA76963   0.817   5.866   9.850 -0.2410 -0.1270  0.1017
25442NA      NA76964   2.751   6.422   7.779  0.3685 -0.3191  0.5979
25443NA      NA76965   4.235   6.377  11.637 -0.0204 -0.3111 -0.0698
25444NA      NA76966   5.964   7.759  10.164 -0.4323  0.4984  0.2413
25445NA      NA76967   4.884   3.469   5.577 -0.6440  0.4753 -0.1548
25446NA      NA76968   4.078   4.246   8.949  0.1359  0.0857  0.2157
25447NA      NA76969   0.138   1.903   8.983 -0.2180 -0.6471 -0.1835
25448NA      NA76970   4.886   5.791   0.856 -0.0304  0.3274  0.2478
25449NA      NA76971   3.738   5.147   4.784 -0.1019 -0.0298 -0.0561
25450NA      NA76972   4.810   3.682   8.544 -0.0650  0.6114 -0.1599
25451NA      NA76973   2.615   7.497  12.162 -0.5088  0.3317 -0.6466
25452NA      NA76974   1.199   2.485   0.698 -0.1010  0.4979 -0.6481
25453NA      NA76975   1.597   6.393   9.503  0.6308  0.3056  0.2380
25454NA      NA76976   7.262   2.577   3.005  0.1670  0.2355  0.2030
25455NA      NA76977   3.825   0.823  11.908  0.3049  0.3886 -0.3183
25456NA      NA76978   7.270   6.582   6.532 -0.1385  0.5390 -0.0341
25457NA      NA76979   3.432   0.368   9.361  0.7417  0.3847 -0.1137
25458NA      NA76980   1.877   7.737  10.822 -0.0786 -0.2625  0.4358
25459NA      NA76981   6.856   1.427   0.851  0.2123  0.1484  0.2057
25460NA      NA76982   1.106   2.986  11.833 -0.3914  0.1189  0.4731
25461NA      NA76983   1.631   6.243  10.741 -0.1365  0.7522  0.1257
25462NA      NA76984   0.657   2.742   5.995 -0.1463  0.1230  0.2101
25463NA      NA76985   3.953   7.617   7.073  0.1925 -0.1667 -0.1338
25464NA      NA76986   3.795   1.568   1.949  0.3217 -0.7894  0.1436
25465NA      NA76987   3.084   0.991  12.243 -0.1779 -0.0469 -0.0707
25466NA      NA76988   6.294   7.424  10.657  0.2758 -0.3148 -0.3673
25467NA      NA76989   4.152   0.866   5.758 -0.6925  0.0375 -0.1559
25468NA      NA76990   0.682   4.538   2.372  0.0903  0.3091 -0.0351
25469NA      NA76991   4.483   3.776   1.935  0.2411  0.0930 -0.1133
25470NA      NA76992   0.149   7.592   3.855  0.1962  0.5456 -0.0697
25471NA      NA76993   5.146   5.507   6.378 -0.1341 -0.4952 -0.3773
25472NA      NA76994   0.375   2.205   3.215 -0.4390 -0.0703  0.2924
25473NA      NA76995   1.054   0.411  11.768  0.2189  0.1216 -0.0720
25474NA      NA76996   7.467   0.083  12.217 -0.4962  0.2103 -0.0690
25475NA      NA76997   0.752   4.280   6.507 -0.0453  0.4075  0.2062
25476NA      NA76998   2.926   4.383   6.693 -0.1664  0.1242 -0.0280
25477NA      NA76999   5.734   7.086   7.051 -0.2190  0.2054  0.2261
25478NA      NA77000   3.214   1.895   7.674 -0.2526  0.2318  0.2740
25479NA      NA77001   6.831   3.013   7.565  0.2927  0.1996 -0.2815
25480NA      NA77002   6.112   0.385   5.937  0.0038  0.0393 -0.0723
25481NA      NA77003   1.203   0.698   9.985 -0.1352 -0.4376  0.4435
25482NA      NA77004   7.672   1.144   3.922  0.3616 -0.5399 -0.0682
25483NA      NA77005   6.851   7.663  11.672 -0.1733  0.0401  0.1302
25484NA      NA77006   2.398   5.305   2.609 -0.4025 -0.3948 -0.7188
25485NA      NA77007   2.708   4.520   1.826  0.2695  0.4452  0.2955
25486NA      NA77008   4.156   5.169   3.103  0.0924  0.0966 -0.3830
25487NA      NA77009   1.133   7.099   5.242 -0.1621  0.2341 -0.0615
25488NA      NA77010   0.807   1.401   7.377  0.0130  0.2735  0.2222
25489NA      NA77011   3.360   2.940   8.094 -0.1041  0.0466  0.3559
25490NA      NA77012   1.052   1.695   6.612 -0.8184 -0.4842  0.0378
25491NA      NA77013   7.078   0.461   3.532 -0.0675 -0.2314 -0.2356
25492NA      NA77014   0.418   3.436   9.981  0.1212  0.7673  0.2893
25493NA      NA77015   3.913   5.716   0.522  0.0347  0.8046 -0.0765
25494NA      NA77016   1.901   3.613   5.568 -0.4069  0.0208 -0.1586
25495NA      NA77017   0.353   6.506   7.524  0.2895  0.2735 -0.4796
25496NA      NA77018   0.680   4.739   3.246  0.4495  0.5130 -0.1271
25497NA      NA77019   6.082   7.760   3.327  0.3382 -0.3437  0.3282
25498NA      NA77020   2.647   1.762   4.700  0.3234  0.1649 -0.0994
25499NA      NA77021   2.099   1.883   9.939  0.4552 -0.1337  0.1559
25500NA      NA77022   0.856   7.509   1.194 -0.3231  0.2035 -0.1119
25501NA      NA77023   3.900   5.586   2.160 -0.2785 -0.1447 -0.0660
25502NA      NA77024   1.819   2.075   1.770  0.0583 -0.0396 -0.1577
25503NA      NA77025   2.196   5.453   7.828 -0.2894 -0.3859  0.2508
25504NA      NA77026   4.696   3.148   2.143 -0.5396 -0.3229 -0.2592
25505NA      NA77027   6.321   4.159   6.804  0.2302  0.4249 -0.0460
25506NA      NA77028   5.391   4.711   9.954  0.0348  0.0093 -0.2065
25507NA      NA77029   3.001   3.859   2.587  0.0024  0.5046  0.1114
25508NA      NA77030   1.145   7.891  11.120  0.3540 -0.5464  0.1439
25509NA      NA77031   5.076   2.347   5.830 -0.2320 -0.4492  0.6957
25510NA      NA77032   3.244   5.614   5.660  0.6172 -0.1296 -0.0107
25511NA      NA77033   2.772   4.653  10.544 -0.1275 -0.1261  0.0366
25512NA      NA77034   6.357   4.709   2.560 -0.3156 -0.2739 -0.4663
25513NA      NA77035   1.814   1.376   3.539 -0.3824  0.2665 -0.0298
25514NA      NA77036   3.389   7.563   5.367  0.3166  0.2210 -0.0890
25515NA      NA77037   7.073   4.869  11.024 -0.0647  0.8458 -0.4234
25516NA      NA77038   6.701   0.666   5.615 -0.0122 -0.3476  0.1812
25517NA      NA77039   1.123   1.168   1.286  0.3209  0.0262  0.1320
25518NA      NA77040   2.713   3.396   7.189  0.3286  0.6770 -0.2272
25519NA      NA77041   5.125   2.752   7.314 -0.0695 -0.2891  0.4366
25520NA      NA77042   7.827   2.162   2.847  0.3065 -0.1289 -0.0461
25521NA      NA77043   0.716   0.436   5.681  0.0006  0.2850 -0.2979
25522NA      NA77044   7.099   5.880  11.333 -0.2893  0.4394 -0.4782
25523NA      NA77045   5.110   6.654  11.251  0.2558 -0.1835  0.8082
25524NA      NA77046   6.923   1.261  11.050 -0.0389  0.1833  0.1683
25525NA      NA77047   1.692   2.320   9.709  0.2763  0.7707 -0.3989
25526NA      NA77048   4.509   3.019  12.295  0.0305 -0.2454 -0.3348
25527NA      NA77049   3.349   2.202   4.839  0.1555 -0.0917  0.1709
25528NA      NA77050   0.021   3.521  11.388 -0.1857  0.4697  0.0067
25529NA      NA77051   5.802   4.735  11.676  0.2286  0.0506  0.2913
25530NA      NA77052   0.698   1.480   1.947  0.0305  0.1657  0.1283
25531NA      NA77053   6.466   3.944  11.118  0.0191 -1.0644  0.2040
25532NA      NA77054   1.982   5.725   6.800 -0.0474  0.2987  0.3069
25533NA      NA77055   4.228   6.312   3.967  0.1757 -0.0928  0.3003
25534NA      NA77056   3.072   3.014   0.639  0.6533 -0.0010  0.0407
25535NA      NA77057   4.397   0.239   0.444 -0.1682 -0.0027  0.2784
25536NA      NA77058   0.621   4.747   7.175  0.1998  0.2479  0.3114
25537NA      NA77059   4.368   1.930   4.415  0.1713 -0.1424 -0.4635
25538NA      NA77060   1.200   4.647  10.953  0.1223 -0.1726  0.4879
25539NA      NA77061   3.610   0.288   6.703 -0.1587  0.0775  0.5341
25540NA      NA77062   3.397   7.746   4.154 -0.2180 -0.3006  0.2089
25541NA      NA77063   7.240   3.866   2.592 -0.0709 -0.2076  0.3136
25542NA      NA77064   1.838   0.094   9.356 -0.5291 -0.6762  0.1335
25543NA      NA77065   5.218   1.953   9.967  0.3704  0.2186 -0.0857
25544NA      NA77066   0.820   2.669   9.692 -0.5583 -0.2109  0.5969
25545NA      NA77067   5.682   5.806   8.042  0.2363 -0.2700 -0.2579
25546NA      NA77068   7.878   2.202  11.193  0.2809  0.1573 -0.2497
25547CL      CL77069   0.163   2.467   0.015 -0.2534 -0.1636 -0.0857
25548CL      CL77070   5.550   6.305  11.080  0.1208 -0.1315 -0.2504
25549CL      CL77071   7.476   5.261   6.595 -0.1353 -0.0835  0.0991
25550CL      CL77072   0.563   2.065  11.075 -0.0702  0.2976  0.1787
25551CL      CL77073   7.585   1.689   6.520 -0.0165  0.7050 -0.1080
25552CL      CL77074   7.375   7.361   5.461 -0.0106 -0.1024  0.3624
25553CL      CL77075   0.184   4.410   1.494 -0.2238 -0.1227  0.4070
25554CL      CL77076   4.748   1.305   7.840 -0.4247 -0.2335 -0.3216
25555CL      CL77077   4.669   0.886   5.832 -0.1986  0.2484 -0.1048
25556CL      CL77078   7.484   2.586  11.528 -0.0725 -0.1864  0.2004
25557CL      CL77079   4.742   5.033   6.083  0.1566 -0.0612  0.0722
25558CL      CL77080   3.161   0.722   3.097  0.0320 -0.0669  0.5031
25559CL      CL77081   6.970   4.867   6.388 -0.2077  0.0854 -0.2419
25560CL      CL77082   5.715   5.293  10.159  0.3980  0.3622  0.0395
25561CL      CL77083   0.372   3.629   0.142 -0.2780 -0.2770  0.1035
25562CL      CL77084   7.420   1.097   4.840 -0.0849  0.1318  0.0488
25563CL      CL77085   1.696   4.885   7.577 -0.0562 -0.4459  0.3115
25564CL      CL77086   4.009   0.069   4.421  0.4469  0.1358 -0.3355
25565CL      CL77087   3.465   3.633  12.347  0.1690 -0.2810  0.1726
25566CL      CL77088   1.276   1.306   3.219  0.3090  0.0695 -0.0265
25567CL      CL77089   2.034   2.282   0.886  0.1621  0.1122  0.3063
25568CL      CL77090   0.187   4.415   7.023 -0.1416  0.2683 -0.0656
25569CL      CL77091   3.006   1.483   6.957  0.4016  0.1140 -0.1654
25570CL      CL77092   4.348   3.570   1.854 -0.2119 -0.0027 -0.3425
25571CL      CL77093   5.435   6.231   5.518  0.1223 -0.2233  0.1104
25572CL      CL77094   6.381   0.210   8.792 -0.0589  0.0483  0.0907
25573CL      CL77095   5.730   7.868   6.671 -0.1879 -0.3084  0.1035
25574CL      CL77096   4.609   6.412   6.150 -0.1303  0.1786  0.2746
25575CL      CL77097   2.188   6.924   3.215  0.2464  0.1222  0.2859
25576CL      CL77098   0.349   1.759   6.463  0.1709  0.4824  0.0502
25577CL      CL77099   5.531   6.671  11.571  0.0793 -0.2625 -0.5532
25578CL      CL77100   2.654   0.942   0.519 -0.2210  0.0146  0.1107
25579CL      CL77101   1.219   4.978   0.620  0.0823  0.1735 -0.0640
25580CL      CL77102   5.393   6.565   2.869  0.0949 -0.2393 -0.2812
25581CL      CL77103   2.856   7.539   5.582 -0.3413 -0.2435  0.0101
25582CL      CL77104   5.251   2.984   1.254  0.2597  0.1625  0.2192
25583CL      CL77105   7.171   2.636  10.588  0.0076 -0.2920 -0.2350
25584CL      CL77106   7.468   5.663   9.850 -0.1351  0.2414  0.2282
25585CL      CL77107   2.786   2.579   1.182  0.0980 -0.2584  0.2740
25586CL      CL77108   0.535   4.047   0.820 -0.0838  0.2069 -0.0294
25587CL      CL77109   3.957   1.208  10.950  0.1345  0.0796  0.2181
25588CL      CL77110   3.209   0.717   7.603 -0.0040 -0.0589  0.0684
25589CL      CL77111   1.262   5.793   4.218 -0.1798 -0.1377 -0.0201
25590CL      CL77112   7.643   3.442  11.854  0.2353 -0.1862  0.0781
25591CL      CL77113   2.213   5.988   8.718 -0.3455  0.0787 -0.2361
25592CL      CL77114   1.358   4.442   7.111 -0.1042  0.2113 -0.0887
25593CL      CL77115   4.869   0.463   7.589 -0.2387 -0.2368 -0.2960
25594CL      CL77116   0.380   7.585   1.195  0.1090 -0.1241 -0.3395
25595CL      CL77117   5.956   1.941   4.877  0.1058 -0.3114  0.0742
25596CL      CL77118   7.334   5.499   0.251 -0.0069  0.6046 -0.2258
25597CL      CL77119   7.049   4.354  11.676  0.1945 -0.4256  0.1719
25598CL      CL77120   2.625   2.578  11.094 -0.0150  0.0435 -0.2544
25599CL      CL77121   2.660   0.160   6.233  0.1248 -0.1195  0.2486
25600CL      CL77122   4.026   7.715  10.373 -0.1347 -0.1295  0.0617
25601CL      CL77123   0.485   3.641   6.177 -0.3939  0.5160 -0.0853
25602CL      CL77124   1.132   4.163   5.749 -0.0832  0.1817  0.1236
25603CL      CL77125   4.563   6.422   2.696 -0.3473 -0.2006 -0.1455
25604CL      CL77126   0.476   4.853   1.288 -0.1491  0.0615  0.3701
25605CL      CL77127   4.621   5.138  11.278 -0.1217 -0.1424  0.2392
25606CL      CL77128   2.976   1.112   4.814  0.1876  0.1085  0.0521
25607CL      CL77129   1.024   6.693   5.593 -0.1665 -0.0186  0.4789
25608CL      CL77130   7.746   2.955  10.944 -0.2995  0.2097 -0.1204
25609CL      CL77131   0.148   0.867   3.461  0.0586  0.0274  0.1269
25610CL      CL77132   4.423   2.437   6.970 -0.1413 -0.2199 -0.4303
25611CL      CL77133   4.548   2.284   2.289  0.0119 -0.0233  0.5799
25612CL      CL77134   2.043   2.566   4.252 -0.0294  0.3022  0.1833
25613CL      CL77135   5.954   2.465   9.789 -0.4094  0.4571 -0.0845
25614CL      CL77136   6.550   4.706   2.985 -0.0492 -0.5077  0.1010
25615CL      CL77137   7.529   7.128   0.895 -0.1799  0.1962  0.4869
25616CL      CL77138   7.199   7.606   7.110  0.1018 -0.1191  0.1338
25617CL      CL77139   0.042   5.848   1.450 -0.1701  0.1993 -0.0748
25618CL      CL77140   1.669   5.997   1.222 -0.0060  0.6515 -0.4944
25619CL      CL77141   7.334   5.155   4.637  0.0812  0.2462 -0.3166
25620CL      CL77142   0.294   0.755   7.740  0.7085  0.4161  0.3304
25621CL      CL77143   5.582   5.383   4.830  0.5996 -0.0343 -0.2558
25622CL      CL77144   4.760   3.484   0.389 -0.1127  0.0565 -0.0496
25623CL      CL77145   3.461   3.330  10.619  0.3232 -0.5593 -0.1373
25624CL      CL77146   0.944   2.328  12.048  0.0250  0.2346  0.2731
25625CL      CL77147   7.182   1.285   5.561  0.3893  0.2576  0.1953
25626CL      CL77148   3.772   0.891   3.682  0.1109  0.0818 -0.0850
25627CL      CL77149   4.465   2.130   9.654  0.3779 -0.0463  0.4111
25628CL      CL77150   4.029   5.657   2.411  0.2005  0.0711 -0.0434
25629CL      CL77151   1.274   7.103   6.869  0.1039  0.2085  0.0606
25630CL      CL77152   3.908   3.807   1.722 -0.2576 -0.0491  0.2969
25631CL      CL77153   3.839   4.306  10.018 -0.3092 -0.2812 -0.2570
25632CL      CL77154   0.460   2.426   3.701  0.0587  0.2007  0.3791
25633CL      CL77155   1.147   0.230   1.907 -0.0432  0.1263  0.1953
25634CL      CL77156   0.819   5.101   8.072  0.0100  0.1555 -0.0497
25635CL      CL77157   1.647   0.070   8.286 -0.1083  0.7008 -0.1463
25636CL      CL77158   2.308   4.331  10.139  0.0934 -0.0589 -0.0226
25637CL      CL77159   7.192   4.214   2.256 -0.4324  0.1256  0.1613
25638CL      CL77160   0.601   7.513   3.158 -0.1109 -0.0476  0.2363
25639CL      CL77161   7.183   0.391   3.066  0.3320  0.0964 -0.1575
25640CL      CL77162   7.064   3.421   5.076  0.0393 -0.1108 -0.3988
25641CL      CL77163   7.241   0.288   3.984 -0.6972 -0.2214 -0.0860
25642CL      CL77164   1.447   5.859  10.995 -0.1129 -0.0383 -0.2382
25643CL      CL77165   2.858   5.226  12.221  0.1473  0.1848 -0.2365
25644CL      CL77166   6.855   7.058  11.823  0.0259  0.0508  0.2065
25645CL      CL77167   7.762   4.878  12.237  0.3312 -0.1152  0.1271
25646CL      CL77168   4.443   6.142   0.441  0.4109 -0.0724 -0.1813
25647CL      CL77169   3.985   6.921   3.152  0.0957  0.0364  0.1446
25648CL      CL77170   3.473   5.024  11.102 -0.1412 -0.0651 -0.4119
25649CL      CL77171   4.164   0.575   2.129  0.1461  0.2213 -0.0112
25650CL      CL77172   3.094   2.214  10.003 -0.2679 -0.1369  0.0192
25651CL      CL77173   4.491   6.928   1.345  0.1110 -0.2430  0.0117
25652CL      CL77174   6.024   3.599   9.078  0.1911  0.2942  0.2854
25653CL      CL77175   7.791   2.859   5.747 -0.6148  0.2373  0.2974
25654CL      CL77176   6.870   0.183   7.607 -0.2994  0.1476  0.4195
25655CL      CL77177   0.008   3.954   8.399 -0.0207 -0.2315  0.1864
25656CL      CL77178   2.160   0.392   9.886 -0.4063 -0.4417  0.1276
25657CL      CL77179   2.384   4.878   1.901 -0.0232  0.1536 -0.4265
25658CL      CL77180   7.819   3.924   1.714  0.1166 -0.0566  0.0447
25659CL      CL77181   5.812   4.904   8.779  0.3715  0.1852 -0.4480
25660CL      CL77182   7.526   5.462   2.820 -0.3688  0.2276  0.1324
25661CL      CL77183   6.267   7.191   1.140 -0.2296  0.0985  0.1485
25662CL      CL77184   2.270   5.339   2.368 -0.2327 -0.0307  0.1031
25663CL      CL77185   1.954   7.582   6.190 -0.0106 -0.0056 -0.2438
25664CL      CL77186   5.341   4.028  10.666  0.3118 -0.3997  0.2945
25665CL      CL77187   7.262   6.300   4.586  0.2062  0.1558 -0.0120
25666CL      CL77188   1.449   5.319   2.658  0.1697 -0.0321 -0.4264
25667CL      CL77189   5.994   5.431   8.288  0.0318 -0.2935  0.0955
25668CL      CL77190   1.413   3.775   0.244 -0.3781 -0.2003 -0.2951
25669CL      CL77191   4.407   6.258  10.370 -0.5655 -0.0719 -0.1390
25670CL      CL77192   0.183   3.036   5.445  0.1789 -0.0370 -0.2226
25671CL      CL77193   5.683   7.027   4.526  0.2697  0.3820 -0.1877
25672CL      CL77194   7.238   3.395   2.322 -0.0291 -0.2372 -0.1246
25673CL      CL77195   6.666   4.638  10.824  0.3167 -0.1513  0.1931
25674CL      CL77196   4.423   0.825   7.200  0.1773  0.0397 -0.3080
25675CL      CL77197   6.952   6.472   4.950 -0.3304 -0.2000  0.0010
25676CL      CL77198   1.620   4.100   8.416  0.2364 -0.5597 -0.4075
25677CL      CL77199   7.598   0.660   6.300  0.3074  0.1582  0.1515
25678CL      CL77200   6.737   2.417   7.573  0.2073  0.0289 -0.1407
25679CL      CL77201   1.606   0.557   3.868  0.0333  0.1657 -0.0764
25680CL      CL77202   5.401   1.979   6.455  0.1548  0.0381 -0.1726
25681CL      CL77203   7.128   5.938  10.499  0.3295 -0.3818  0.1398
25682CL      CL77204   2.463   4.080   9.579  0.1931 -0.3641 -0.1044
25683CL      CL77205   7.226   0.692   0.874 -0.1440  0.0113 -0.0461
25684CL      CL77206   2.927   6.264   7.683 -0.1535  0.2163 -0.0130
25685CL      CL77207   4.851   6.549   4.143 -0.1627 -0.3895 -0.4336
25686CL      CL77208   5.868   2.947   0.712 -0.1463 -0.1344 -0.4763
25687CL      CL77209   7.874   2.755  11.712  0.1938  0.3042 -0.3936
25688CL      CL77210   0.496   7.348   8.898  0.0545  0.4936  0.1105
25689CL      CL77211   1.667   5.961   3.613 -0.4404 -0.1635 -0.2055
25690CL      CL77212   2.012   6.215   0.192  0.3429 -0.3941  0.3068
25691CL      CL77213   4.079   2.869  11.883  0.1035 -0.1211 -0.3150
25692CL      CL77214   4.739   2.029   2.936 -0.1252 -0.0652 -0.1446
25693CL      CL77215   4.774   1.732   4.618 -0.1257 -0.4018 -0.0088
25694CL      CL77216   1.776   3.812   3.658  0.3248 -0.1322 -0.0418
25695CL      CL77217   2.694   3.592  10.379  0.0973 -0.0626 -0.3823
25696CL      CL77218   0.763   2.181   1.599  0.4838  0.5198  0.0240
25697CL      CL77219   2.647   3.092   1.282  0.2371  0.1354  0.0002
25698CL      CL77220   0.686   6.279  10.454 -0.2553  0.4983  0.5119
25699CL      CL77221   2.916   7.099   6.414 -0.1738 -0.0662 -0.3452
25700CL      CL77222   1.587   6.188  11.400  0.4785 -0.3927 -0.1009
25701CL      CL77223   6.353   1.756  12.030 -0.1292  0.1706 -0.3271
25702CL      CL77224   5.398   6.659   4.620  0.5853  0.1226  0.3024
25703CL      CL77225   7.584   4.429   4.209  0.3218 -0.2254  0.1107
25704CL      CL77226   3.129   7.456   4.262 -0.0766  0.0382  0.1920
25705CL      CL77227   1.093   3.848   5.266  0.0842 -0.2962  0.3260
25706CL      CL77228   2.776   2.229   1.868  0.4509  0.4014 -0.1994
25707CL      CL77229   4.170   4.960  12.203 -0.3429 -0.0538 -0.1481
25708CL      CL77230   5.027   3.146   6.964 -0.2469 -0.3458  0.0143
25709CL      CL77231   2.318   6.416   7.416 -0.3219 -0.3753 -0.0803
25710CL      CL77232   4.426   2.644   0.179  0.1871 -0.2942 -0.0163
25711CL      CL77233   6.351   5.028   1.613 -0.0296  0.1743  0.0565
25712CL      CL77234   0.143   4.696  10.641 -0.3748  0.3755  0.0212
25713CL      CL77235   6.947   0.529  11.795  0.4468 -0.0397 -0.4197
25714CL      CL77236   3.357   6.990   6.708 -0.0140 -0.0902  0.0147
25715CL      CL77237   5.499   4.971   3.623 -0.0221 -0.0285 -0.0537
25716CL      CL77238   4.918   7.541   2.481 -0.0892  0.2928  0.1616
25717CL      CL77239   6.956   7.061  10.313  0.5002 -0.3517  0.2825
25718CL      CL77240   6.233   5.254  11.916 -0.0555 -0.3179 -0.2165
25719CL      CL77241   4.162   5.731   7.363 -0.3168  0.1222  0.0758
25720CL      CL77242   6.238   3.048  10.911  0.0038  0.1952 -0.2255
25721CL      CL77243   4.981   6.795   9.065 -0.0408 -0.4503 -0.5119
25722CL      CL77244   1.386   1.321   5.654 -0.2400 -0.0545 -0.1277
25723CL      CL77245   3.591   5.818   7.356  0.3450  0.0740  0.0311
25724CL      CL77246   1.393   3.134   2.255 -0.2366  0.3132  0.3753
25725CL      CL77247   5.621   3.494   7.452 -0.2569  0.0292  0.0202
25726CL      CL77248   5.230   6.793   0.480 -0.2631  0.2867 -0.3501
25727CL      CL77249   2.177   2.584   8.579  0.1936  0.1836  0.0022
25728CL      CL77250   2.345   1.888   9.020  0.1035  0.1783 -0.5062
25729CL      CL77251   4.626   4.751   1.599 -0.1025 -0.4269 -0.3741
25730CL      CL77252   6.260   4.457   2.495  0.0997  0.1418  0.1474
25731CL      CL77253   2.909   5.883   4.091 -0.6033  0.1284  0.4484
25732CL      CL77254   7.413   6.306   7.134  0.0022 -0.0184 -0.2153
25733CL      CL77255   0.819   3.022   6.940  0.2132 -0.1680  0.1372
25734CL      CL77256   6.174   0.715  11.316  0.0899 -0.2490 -0.0262
25735CL      CL77257   0.954   3.939   8.972  0.0901 -0.3540 -0.0713
25736CL      CL77258   3.303   6.410  11.392 -0.3847 -0.2211 -0.1268
25737CL      CL77259   6.551   3.613  10.779 -0.1080  0.1892  0.2943
25738CL      CL77260   6.324   0.834   5.140 -0.0288  0.0870 -0.4381
25739CL      CL77261   4.153   7.477   6.385 -0.4664 -0.0902  0.0034
25740CL      CL77262   2.042   2.551  12.250 -0.2482  0.4323  0.2344
25741CL      CL77263   5.767   5.338   2.719 -0.2215 -0.4670 -0.2072
25742CL      CL77264   0.556   5.744   0.948  0.0491  0.3328 -0.2964
25743CL      CL77265   6.848   0.134   0.229 -0.1440  0.4152 -0.0563
25744CL      CL77266   2.922   0.820   1.166  0.0716 -0.3044 -0.0279
25745CL      CL77267   5.155   7.740   0.598  0.3250  0.1496  0.0864
25746CL      CL77268   5.420   4.336   1.795  0.0659  0.2228 -0.2560
25747CL      CL77269   3.512   0.825   9.234  0.2610  0.2974 -0.4925
25748CL      CL77270   1.893   2.121  10.630 -0.1496 -0.1065  0.1852
25749CL      CL77271   1.982   0.528   8.808  0.1962  0.2042  0.1169
25750CL      CL77272   7.286   5.618   3.589  0.1320 -0.1605  0.3905
25751CL      CL77273   4.297   7.013  10.924  0.2084 -0.0156  0.5451
25752CL      CL77274   3.717   7.329   4.082 -0.4884  0.4049 -0.2482
25753CL      CL77275   0.301   1.615   8.411  0.0284  0.0246 -0.3842
25754CL      CL77276   6.722   1.490   8.117  0.5741  0.0948  0.4655
25755CL      CL77277   1.021   0.210  11.994  0.0071  0.0412  0.0880
25756CL      CL77278   6.944   7.661   8.147 -0.1303  0.2890 -0.2704
25757CL      CL77279   1.448   3.346   0.941  0.0776  0.1949 -0.2369
25758CL      CL77280   1.575   6.046  10.003 -0.3701  0.4437  0.1537
25759CL      CL77281   4.344   2.159   5.943 -0.0931  0.2217 -0.1959
25760CL      CL77282   0.426   1.218   5.424  0.0279 -0.1490 -0.0712
25761CL      CL77283   0.448   2.041   9.923  0.1446  0.2092  0.0112
25762CL      CL77284   0.613   5.618   0.394 -0.1344  0.1819 -0.0041
25763CL      CL77285   6.069   4.080   0.690 -0.4514  0.0035 -0.0059
25764CL      CL77286   7.831   5.671  12.016 -0.0831 -0.1490  0.0859
25765CL      CL77287   3.107   5.931   2.990 -0.3351 -0.3192  0.2681
25766CL      CL77288   7.732   5.476  10.807 -0.2023 -0.1460 -0.2251
25767CL      CL77289   6.460   3.213   0.515  0.1962  0.6334  0.1708
25768CL      CL77290   6.691   1.994   8.834  0.3390  0.3023 -0.0971
25769CL      CL77291   4.978   3.040  10.868 -0.4396 -0.1895  0.5224
25770CL      CL77292   2.720   1.141  11.944  0.2322  0.0928  0.1199
25771CL      CL77293   0.646   6.391   2.016  0.2696  0.0560  0.0990
25772CL      CL77294   5.063   4.822   1.746 -0.1717  0.2547  0.3543
25773CL      CL77295   5.556   2.820  11.218 -0.1433 -0.3867  0.1144
25774CL      CL77296   7.076   0.910   3.483 -0.1207  0.1809  0.2000
25775CL      CL77297   6.622   3.135  10.573 -0.0854  0.0609 -0.0610
25776CL      CL77298   4.953   6.374  12.335 -0.4263  0.4128 -0.3477
25777CL      CL77299   3.380   3.828   0.777  0.2019  0.1683 -0.1576
25778CL      CL77300   0.881   0.525   9.001  0.1707 -0.1423 -0.0663
25779CL      CL77301   5.259   7.603   7.441  0.1571  0.0624 -0.0506
25780CL      CL77302   2.082   6.861   4.916  0.4470 -0.2883 -0.1423
25781CL      CL77303   2.614   5.460   3.608  0.0270  0.0291  0.7086
25782CL      CL77304   6.665   3.589   6.796  0.0436 -0.0328  0.1257
25783CL      CL77305   2.162   5.796   8.113 -0.0902  0.0490 -0.4052
25784CL      CL77306   1.667   0.084   2.170  0.1051  0.1842  0.4549
25785CL      CL77307   5.722   6.597   8.758  0.0796 -0.4398  0.2795
25786CL      CL77308   2.277   0.379  10.396  0.3534  0.1375 -0.3701
25787CL      CL77309   7.613   4.802  10.425 -0.1406 -0.2733  0.0091
25788CL      CL77310   2.598   0.085   8.135  0.1399  0.3004  0.5479
25789CL      CL77311   6.129   4.253   8.441  0.0072  0.1382 -0.4315
25790CL      CL77312   3.589   0.340   6.039 -0.2146  0.1228 -0.2436
25791CL      CL77313   5.011   4.111   0.416  0.6980 -0.4367 -0.0436
25792CL      CL77314   7.222   4.534   7.424  0.1610 -0.0527  0.3349
25793CL      CL77315   1.184   1.207   0.563 -0.3704 -0.2546  0.3076
25794CL      CL77316   4.139   0.484   8.989  0.0319  0.0487  0.1045
25795CL      CL77317   6.670   6.070   8.079 -0.1653 -0.1198  0.0341
25796CL      CL77318   6.542   7.427  12.081 -0.1219  0.2456 -0.0189
25797CL      CL77319   6.983   1.614  10.687 -0.2577  0.1364 -0.3680
25798CL      CL77320   7.075   4.003   0.303 -0.3093  0.2103 -0.1749
25799CL      CL77321   5.412   5.261   9.108 -0.1327 -0.2307 -0.3821
25800CL      CL77322   0.422   7.400  10.579 -0.2069  0.5883 -0.2615
25801CL      CL77323   7.721   6.109   5.313 -0.0535 -0.1367  0.1104
25802CL      CL77324   7.620   7.000   3.483 -0.5536 -0.1948  0.1646
25803CL      CL77325   2.261   4.891   2.603  0.4486  0.0117  0.1089
25804CL      CL77326   1.410   2.140   3.625  0.4946  0.1515 -0.1600
25805CL      CL77327   6.249   2.751   8.448  0.0012 -0.1185  0.2770
25806CL      CL77328   6.257   1.432   2.620 -0.4078 -0.3146 -0.0908
25807CL      CL77329   0.308   6.409   6.985 -0.2325 -0.6381  0.2795
25808CL      CL77330   4.296   7.730   1.818  0.3633  0.2363 -0.0190
25809CL      CL77331   5.559   6.144   7.125 -0.1419  0.3398  0.6113
25810CL      CL77332   2.825   2.011   5.701 -0.0496  0.1119  0.0931
25811CL      CL77333   5.863   7.096   0.924  0.2536  0.4104 -0.1581
25812CL      CL77334   4.504   5.489   3.394  0.4566 -0.2769  0.1493
25813CL      CL77335   7.607   2.304   4.847  0.2204 -0.0306 -0.4105
25814CL      CL77336   7.165   6.616   1.159 -0.2710  0.0117  0.0682
25815CL      CL77337   7.804   7.570   6.617 -0.1389  0.0241  0.1021
25816CL      CL77338   1.578   4.634   8.344 -0.0782  0.5222 -0.3248
25817CL      CL77339   5.088   0.040  12.233 -0.5121  0.3988 -0.2259
25818CL      CL77340   5.612   2.305   7.375  0.0174 -0.2354  0.4279
25819CL      CL77341   5.905   5.815   6.983 -0.1599 -0.0099  0.2226
25820CL      CL77342   1.637   4.490   4.730 -0.0509  0.0820 -0.1525
25821CL      CL77343   3.845   7.438   9.938 -0.1427  0.0632  0.3436
25822CL      CL77344   0.696   1.835   7.628  0.1559  0.0275  0.1415
25823CL      CL77345   7.776   5.834   2.434 -0.1005 -0.0314 -0.3627
25824CL      CL77346   3.565   7.334  12.233  0.5845  0.3477  0.0610
25825CL      CL77347   0.198   4.323   8.070 -0.0242  0.1715  0.2373
25826CL      CL77348   1.190   6.927  10.774  0.1199  0.3869 -0.0463
25827CL      CL77349   5.723   4.123   8.225  0.0728 -0.5819 -0.4635
25828CL      CL77350   6.239   6.039   2.460 -0.0495 -0.2508  0.0838
25829CL      CL77351   5.606   1.276   9.825  0.1560 -0.2223 -0.0957
25830CL      CL77352   0.632   4.804  11.122  0.2429  0.3106 -0.3201
25831CL      CL77353   4.543   2.362   9.066  0.2259  0.2480  0.2242
25832CL      CL77354   6.452   1.498   5.510 -0.0862 -0.3432 -0.5403
25833CL      CL77355   2.614   6.673   0.323 -0.2688 -0.1814 -0.6016
25834CL      CL77356   7.317   4.608   3.550 -0.1669 -0.0431  0.7050
25835CL      CL77357   3.864   7.589   5.094  0.3092 -0.2469  0.0218
25836CL      CL77358   6.712   7.163   5.872 -0.2749 -0.1805 -0.3395
25837CL      CL77359   0.358   6.350   3.782  0.0085  0.3550 -0.2423
25838CL      CL77360   1.646   6.630   3.824 -0.1947  0.2652  0.0337
25839CL      CL77361   0.131   2.452   8.636 -0.0049 -0.3242 -0.2218
25840CL      CL77362   1.866   5.153  10.944  0.1349  0.1995 -0.0724
25841CL      CL77363   6.029   7.181   1.901 -0.1226 -0.0026  0.3877
25842CL      CL77364   1.086   2.355  10.084 -0.1199 -0.2986 -0.0653
25843CL      CL77365   6.916   6.855   7.206  0.3133  0.0783  0.0375
25844CL      CL77366   5.246   1.480   2.670  0.1440  0.0326 -0.0397
25845CL      CL77367   2.118   4.299   3.193 -0.0093 -0.0612 -0.2028
25846CL      CL77368   6.976   4.765   5.153 -0.1537 -0.2242  0.0134
25847CL      CL77369   5.255   1.122   6.898 -0.1423  0.0243  0.1455
25848CL      CL77370   5.709   5.585   9.177  0.3025 -0.4454 -0.2597
25849CL      CL77371   3.566   3.840  11.405  0.5273 -0.0581 -0.1255
25850CL      CL77372   1.558   1.783   1.039 -0.3695  0.0279  0.2652
25851CL      CL77373   2.269   2.083  10.417 -0.1197 -0.0657 -0.0097
25852CL      CL77374   7.753   2.525   9.333 -0.0494 -0.3554 -0.2630
25853CL      CL77375   0.762   6.371  11.778  0.0858 -0.6951  0.0590
25854CL      CL77376   5.310   4.654  11.225  0.2113 -0.2469 -0.1815
25855CL      CL77377   1.561   1.466   9.307  0.1018 -0.3424 -0.2735
25856CL      CL77378   1.696   7.744   2.768 -0.3342 -0.0887 -0.4736
25857CL      CL77379   7.264   0.371  10.210  0.0101  0.0987 -0.2381
25858CL      CL77380   2.056   4.172  11.548  0.0330 -0.0964  0.0754
25859CL      CL77381   0.819   1.042  11.229  0.0398  0.3162 -0.4150
25860CL      CL77382   2.947   2.508   8.487 -0.5305 -0.6015  0.1090
25861CL      CL77383   0.582   0.062   4.207 -0.0266 -0.1326  0.1689
25862CL      CL77384   5.356   2.691   2.987 -0.1533 -0.0030 -0.1622
25863CL      CL77385   6.969   6.677   3.460 -0.3913  0.2982  0.1779
25864CL      CL77386   5.525   4.575   7.334 -0.0718  0.0678  0.2406
25865CL      CL77387   1.466   2.090   9.384 -0.1735 -0.2319 -0.0819
25866CL      CL77388   6.808   7.261   0.279 -0.1586  0.3042 -0.0399
25867CL      CL77389   2.964   5.994   5.135  0.1883  0.0227  0.4109
25868CL      CL77390   1.569   1.065   8.174 -0.0001  0.2443  0.3699
25869CL      CL77391   3.715   1.351  11.825  0.4097 -0.2957 -0.4282
25870CL      CL77392   6.508   0.679   1.083  0.3510  0.6342 -0.1865
25871CL      CL77393   0.994   3.821   6.618 -0.1545 -0.3448  0.0860
25872CL      CL77394   6.731   5.249   5.311 -0.3527  0.1196 -0.0511
25873CL      CL77395   3.966   0.644  11.738 -0.3046  0.0545 -0.0292
25874CL      CL77396   1.981   0.415  12.040  0.1190 -0.2534 -0.0529
25875CL      CL77397   0.706   0.127   9.510 -0.2181 -0.1271  0.0737
25876CL      CL77398   2.219   3.138  11.134  0.1287  0.1012  0.0579
25877CL      CL77399   4.136   1.365   0.738  0.1212  0.1686 -0.0580
25878CL      CL77400   3.803   0.040   9.400  0.0242  0.3730  0.2504
25879CL      CL77401   0.427   3.291  11.310 -0.1829  0.0274  0.0649
25880CL      CL77402   1.172   7.737   6.741  0.1914 -0.2462 -0.0055
25881CL      CL77403   2.431   3.956   5.360 -0.1167 -0.0923  0.1926
25882CL      CL77404   7.229   5.746   1.635  0.6127  0.0593 -0.4902
25883CL      CL77405   6.448   4.309   7.456 -0.3328  0.0949  0.0953
25884CL      CL77406   3.166   5.103   5.315 -0.2167 -0.2031 -0.0839
25885CL      CL77407   0.687   6.938   4.059  0.4761 -0.0250  0.0094
25886CL      CL77408   0.465   4.924   6.099  0.0484  0.2595  0.0767
25887CL      CL77409   3.208   7.347   8.042 -0.4829  0.3307 -0.1509
25888CL      CL77410   6.816   3.621   1.489  0.4496 -0.3005  0.1825
25889CL      CL77411   3.582   0.383   5.544  0.1020 -0.1811  0.3323
25890CL      CL77412   0.689   6.820   5.309  0.3494 -0.0275  0.0377
25891CL      CL77413   1.301   3.038   4.474 -0.1958  0.1131 -0.0758
25892CL      CL77414   4.863   2.791  12.086 -0.1448 -0.0527 -0.1105
25893CL      CL77415   5.897   4.853   3.217  0.5932 -0.0225 -0.4807
25894CL      CL77416   7.895   5.893   7.822  0.0090  0.0459 -0.0015
25895CL      CL77417   2.940   2.127   3.129  0.6346 -0.2223 -0.1933
25896CL      CL77418   6.590   6.885   4.108 -0.3431 -0.0407 -0.0564
25897CL      CL77419   2.856   7.192   0.053  0.2734 -0.1072  0.0787
25898CL      CL77420   5.551   0.051   3.140 -0.4532  0.2990  0.0093
25899CL      CL77421   3.463   0.480   2.199 -0.3590 -0.1099  0.1191
25900CL      CL77422   0.654   7.047   2.063  0.0494 -0.1660 -0.0351
25901CL      CL77423   2.763   6.537   8.023  0.0206 -0.0744  0.3776
25902CL      CL77424   6.140   6.168  10.437 -0.4036  0.2945 -0.1929
25903CL      CL77425   1.024   6.241   0.594  0.0958  0.1002  0.1588
25904CL      CL77426   5.145   5.848   9.847  0.2448 -0.2885 -0.0381
25905CL      CL77427   4.493   6.018   1.123  0.2317 -0.1129 -0.2278
25906CL      CL77428   1.057   4.523   3.438  0.0708  0.1287 -0.3303
25907CL      CL77429   1.947   1.768  11.928  0.0401  0.4110 -0.1634
25908CL      CL77430   5.306   5.957   4.478 -0.0221  0.1629  0.1694
25909CL      CL77431   5.189   0.759  11.724  0.7355  0.3520  0.0981
25910CL      CL77432   2.379   1.250   4.144  0.0201  0.5447 -0.3919
25911CL      CL77433   6.446   0.683   6.110 -0.2771 -0.1414 -0.3153
25912CL      CL77434   0.251   5.735  11.698  0.0145 -0.3885 -0.1892
25913CL      CL77435   6.203   5.619  12.312  0.0591  0.4115 -0.3984
25914CL      CL77436   2.733   5.775   6.994 -0.1952 -0.0819  0.1796
25915CL      CL77437   5.597   6.938  10.382  0.3103 -0.1438 -0.0911
25916CL      CL77438   6.298   4.183   1.934  0.6231  0.2407  0.0945
25917CL      CL77439   3.174   1.893   1.327 -0.2290 -0.2440 -0.1423
25918CL      CL77440   2.151   6.770   2.791 -0.0588 -0.3241  0.3334
25919CL      CL77441   1.413   6.453  12.155 -0.0042 -0.2776  0.0756
25920CL      CL77442   5.256   4.672  10.188 -0.2225  0.1623  0.0314
25921CL      CL77443   2.473   6.284  11.311  0.0476 -0.0600 -0.3057
25922CL      CL77444   2.422   3.098   3.035 -0.0067 -0.2514  0.0975
25923CL      CL77445   1.407   3.758  10.617  0.3759 -0.0450  0.2685
25924CL      CL77446   6.557   3.385   3.537 -0.1032 -0.1538 -0.1423
25925CL      CL77447   5.695   0.037   1.638 -0.3843 -0.5315 -0.1421
25926CL      CL77448   5.638   1.542   7.340 -0.1879  0.2684  0.0116
25927CL      CL77449   4.694   6.018   5.554  0.3906  0.0118  0.3685
25928CL      CL77450   7.309   3.267   1.847  0.2294 -0.0599 -0.1031
25929CL      CL77451   2.927   3.521   0.743 -0.3893 -0.1092  0.1249
25930CL      CL77452   4.588   1.387   4.951 -0.0284 -0.1980 -0.0605
25931CL      CL77453   7.704   6.214  10.843  0.0368 -0.0869 -0.1138
25932CL      CL77454   6.969   7.203   8.400 -0.0471 -0.2933 -0.0123
25933CL      CL77455   6.575   5.882   6.424 -0.0094  0.1960  0.6206
25934CL      CL77456   7.503   2.739   4.248 -0.1016  0.5776  0.4446
25935CL      CL77457   6.556   2.724   7.047  0.3676  0.1922  0.3808
25936CL      CL77458   3.757   5.973   6.013 -0.3948 -0.1749 -0.1103
25937CL      CL77459   1.629   5.369  11.368  0.2680 -0.5421 -0.0565
25938CL      CL77460   6.919   7.905   4.246 -0.2388  0.1116 -0.3296
25939CL      CL77461   0.665   0.810  11.715  0.0985  0.0419  0.0233
25940CL      CL77462   7.860   7.027  10.062 -0.0987  0.7509  0.0633
25941CL      CL77463   0.177   1.555   3.160 -0.0427 -0.2908 -0.0154
25942CL      CL77464   6.387   0.919   1.994 -0.2943 -0.0839 -0.0965
25943CL      CL77465   6.553   6.493   8.972 -0.0971 -0.4952 -0.1139
25944CL      CL77466   7.296   2.069   3.176  0.3074 -0.4310  0.5751
25945CL      CL77467   0.861   0.393   2.253  0.0338 -0.4816 -0.1603
25946CL      CL77468   0.418   1.595   6.983  0.2491 -0.2112  0.1518
25947CL      CL77469   7.765   0.974   8.153  0.2245 -0.0585  0.5006
25948CL      CL77470   4.812   7.444   7.345  0.0532 -0.3469 -0.1561
25949CL      CL77471   4.130   5.456   9.728  0.6324 -0.0872 -0.3680
25950CL      CL77472   1.710   6.629   9.417  0.4610 -0.4403  0.1032
25951CL      CL77473   3.390   6.595   1.008  0.0217 -0.1398 -0.9986
25952CL      CL77474   5.101   2.114   5.334  0.1054 -0.3017  0.0610
25953CL      CL77475   5.965   3.818   4.679 -0.1051  0.1137  0.4719
25954CL      CL77476   5.625   0.848  10.850  0.0649  0.2485 -0.0426
25955CL      CL77477   4.794   2.504   5.417  0.1640  0.0274 -0.6502
25956CL      CL77478   5.169   7.783  10.393 -0.1794 -0.4274 -0.0772
25957CL      CL77479   4.847   0.096   3.611  0.9411 -0.1353  0.3113
25958CL      CL77480   5.820   7.720   4.056  0.5421 -0.2173 -0.0528
25959CL      CL77481   7.732   0.242   3.921  0.3654  0.2816 -0.1351
25960CL      CL77482   6.526   2.513   2.887  0.2302  0.4119  0.2395
25961CL      CL77483   3.750   0.349   0.667  0.2311  0.2784 -0.1265
25962CL      CL77484   3.878   1.175   6.491 -0.0319 -0.0782  0.1160
25963CL      CL77485   5.054   1.496  11.540  0.0810 -0.1188 -0.0589
25964CL      CL77486   1.998   3.749   3.208  0.1207 -0.4161 -0.2238
25965CL      CL77487   2.286   5.458   7.556  0.1352  0.4924  0.2506
25966CL      CL77488   0.242   3.652   2.279  0.0315 -0.1297 -0.0635
25967CL      CL77489   2.667   0.887   6.133 -0.0028 -0.3984 -0.3047
25968CL      CL77490   0.566   4.472   2.617 -0.1159  0.1968 -0.2261
25969CL      CL77491   4.166   0.515   9.755 -0.4186 -0.0833 -0.2234
25970CL      CL77492   1.190   5.451   9.815 -0.5146 -0.0123  0.0765
25971CL      CL77493   6.674   0.985   7.928  0.2748 -0.2566  0.6294
25972CL      CL77494   3.713   0.450  12.141 -0.4210 -0.1521  0.0143
25973CL      CL77495   1.321   3.008   8.858 -0.1481  0.3471  0.4637
25974CL      CL77496   2.268   6.081   6.062  0.3939  0.1276  0.1805
25975CL      CL77497   2.882   3.128   2.979 -0.3340 -0.0185 -0.0248
25976CL      CL77498   6.808   7.299   2.075 -0.0320  0.2140  0.4813
25977CL      CL77499   1.093   5.334   7.688  0.1130  0.0669  0.0089
25978CL      CL77500   2.805   1.343   3.622  0.2260  0.3315 -0.1450
25979CL      CL77501   1.419   7.702   0.037 -0.2385  0.0169  0.4122
25980CL      CL77502   4.242   5.446   0.861  0.1591 -0.2785 -0.4253
25981CL      CL77503   0.628   4.215   2.013 -0.0440  0.1719  0.2423
25982CL      CL77504   1.676   7.739   5.407  0.2136 -0.0945 -0.1673
25983CL      CL77505   3.713   5.354   6.558 -0.1174 -0.3669 -0.0838
25984CL      CL77506   4.632   7.295   8.525  0.2165 -0.0071  0.0233
25985CL      CL77507   2.921   4.125   0.160 -0.1678  0.4970  0.0604
25986CL      CL77508   5.983   4.182  11.317  0.0156 -0.2083  0.5221
25987CL      CL77509   3.987   6.431   9.320 -0.2333  0.1821  0.0715
25988CL      CL77510   5.768   2.736   9.411  0.5259  0.0890 -0.6159
25989CL      CL77511   4.807   6.917  10.898  0.5900  0.3791  0.3413
25990CL      CL77512   4.769   3.754   1.208 -0.2441 -0.0593  0.1325
25991CL      CL77513   1.210   0.371   6.630  0.6051  0.0491  0.0716
25992CL      CL77514   1.920   5.941   2.568  0.1581  0.1154 -0.5050
25993CL      CL77515   0.542   3.044   9.692 -0.3534  0.4225 -0.1934
25994CL      CL77516   7.317   1.418  11.205  0.3201  0.1682  0.1907
25995CL      CL77517   7.192   2.385   5.927 -0.4697  0.2480 -0.0524
25996CL      CL77518   1.943   5.533   3.627 -0.3226 -0.0788  0.0102
25997CL      CL77519   3.056   6.871  11.555  0.0381  0.1674 -0.1189
25998CL      CL77520   6.636   6.818   2.718  0.1142  0.1604  0.1173
25999CL      CL77521   0.605   0.616   1.311 -0.3660 -0.0193  0.4516
26000CL      CL77522   0.912   1.898   2.255 -0.0059 -0.2171 -0.0602
26001CL      CL77523   1.920   0.660  11.563  0.2346  0.0058 -0.0216
26002CL      CL77524   0.669   6.241   4.335  0.1892  0.0356 -0.2836
26003CL      CL77525   1.362   0.998   2.512 -0.1917  0.1510 -0.4738
26004CL      CL77526   4.721   5.553   1.982  0.1315  0.1295 -0.4818
   7.92626   7.92626  12.38479
